INSANE! Membrane UpperLeaflet>DOPC:CHOL=67.0:33.0 LowerLeaflet>DOPC:CHOL=67.0:33.0 t= 3800.00000 step= 190000
92092
   62DOPC   NC3    1   3.999  22.211   8.002
   62DOPC   PO4    2   3.749  22.281   7.672
   62DOPC   GL1    3   3.699  22.301   7.272
   62DOPC   GL2    4   3.349  22.311   7.082
   62DOPC   C1A    5   3.769  22.441   6.832
   62DOPC   D2A    6   3.739  22.291   6.392
   62DOPC   C3A    7   3.999  22.401   6.102
   62DOPC   C4A    8   4.079  22.721   5.732
   62DOPC   C1B    9   3.519  22.021   6.822
   62DOPC   D2B   10   3.349  22.041   6.372
   62DOPC   C3B   11   3.709  21.961   6.002
   62DOPC   C4B   12   4.159  21.881   6.122
   63DOPC   NC3   13   5.609  20.354   8.292
   63DOPC   PO4   14   5.689  20.214   7.892
   63DOPC   GL1   15   5.769  20.164   7.492
   63DOPC   GL2   16   5.639  19.794   7.292
   63DOPC   C1A   17   5.739  20.214   7.062
   63DOPC   D2A   18   5.539  20.134   6.702
   63DOPC   C3A   19   5.689  20.444   6.392
   63DOPC   C4A   20   5.589  20.844   6.102
   63DOPC   C1B   21   5.779  19.664   6.912
   63DOPC   D2B   22   5.859  19.364   6.532
   63DOPC   C3B   23   5.649  19.004   6.462
   63DOPC   C4B   24   5.809  18.664   6.552
   64DOPC   NC3   25  12.689  23.021   8.262
   64DOPC   PO4   26  12.919  22.561   8.362
   64DOPC   GL1   27  12.949  22.521   8.032
   64DOPC   GL2   28  12.839  22.151   7.952
   64DOPC   C1A   29  13.009  22.381   7.552
   64DOPC   D2A   30  13.369  22.521   7.302
   64DOPC   C3A   31  13.199  22.671   6.942
   64DOPC   C4A   32  13.309  22.711   6.412
   64DOPC   C1B   33  12.509  22.341   7.652
   64DOPC   D2B   34  12.399  22.181   7.302
   64DOPC   C3B   35  12.459  22.201   6.942
   64DOPC   C4B   36  12.349  22.101   6.542
   65DOPC   NC3   37   7.819  17.344   3.942
   65DOPC   PO4   38   7.419  17.294   4.092
   65DOPC   GL1   39   7.649  17.304   4.442
   65DOPC   GL2   40   7.429  17.314   4.772
   65DOPC   C1A   41   7.939  17.444   4.822
   65DOPC   D2A   42   7.939  17.544   5.182
   65DOPC   C3A   43   7.989  17.384   5.552
   65DOPC   C4A   44   7.899  17.374   5.962
   65DOPC   C1B   45   7.459  17.244   5.222
   65DOPC   D2B   46   7.379  17.314   5.642
   65DOPC   C3B   47   7.139  17.644   5.722
   65DOPC   C4B   48   6.979  18.034   5.902
   66DOPC   NC3   49  15.479  15.794   8.382
   66DOPC   PO4   50  14.979  15.874   8.302
   66DOPC   GL1   51  14.749  15.714   7.922
   66DOPC   GL2   52  14.629  15.884   7.612
   66DOPC   C1A   53  14.919  15.474   7.602
   66DOPC   D2A   54  15.009  15.034   7.332
   66DOPC   C3A   55  14.709  14.754   7.152
   66DOPC   C4A   56  14.679  14.334   7.092
   66DOPC   C1B   57  14.269  16.024   7.322
   66DOPC   D2B   58  14.029  16.274   7.232
   66DOPC   C3B   59  14.089  16.424   6.862
   66DOPC   C4B   60  14.099  16.434   6.402
   67DOPC   NC3   61   2.169  10.714   3.532
   67DOPC   PO4   62   1.709  10.974   3.642
   67DOPC   GL1   63   1.919  10.704   3.992
   67DOPC   GL2   64   2.039  10.814   4.242
   67DOPC   C1A   65   2.039  10.294   4.222
   67DOPC   D2A   66   2.099  10.164   4.652
   67DOPC   C3A   67   1.859   9.784   4.852
   67DOPC   C4A   68   1.999   9.714   5.242
   67DOPC   C1B   69   1.979  11.144   4.572
   67DOPC   D2B   70   1.619  11.234   4.682
   67DOPC   C3B   71   1.329  11.664   4.692
   67DOPC   C4B   72   1.129  12.124   4.652
   68DOPC   NC3   73   3.609  10.844   7.882
   68DOPC   PO4   74   3.579  10.794   7.412
   68DOPC   GL1   75   3.619  10.864   6.902
   68DOPC   GL2   76   3.709  11.174   6.732
   68DOPC   C1A   77   3.469  10.654   6.542
   68DOPC   D2A   78   3.119  10.434   6.302
   68DOPC   C3A   79   3.199  10.184   5.942
   68DOPC   C4A   80   3.629  10.184   5.602
   68DOPC   C1B   81   3.659  11.054   6.322
   68DOPC   D2B   82   4.039  10.834   6.052
   68DOPC   C3B   83   3.999  11.014   5.672
   68DOPC   C4B   84   4.239  10.954   5.252
   69DOPC   NC3   85  18.699   6.874   8.342
   69DOPC   PO4   86  18.879   6.844   7.912
   69DOPC   GL1   87  18.679   7.204   7.602
   69DOPC   GL2   88  18.889   7.454   7.502
   69DOPC   C1A   89  18.499   7.204   7.192
   69DOPC   D2A   90  18.279   7.314   6.802
   69DOPC   C3A   91  18.049   7.044   6.472
   69DOPC   C4A   92  18.219   6.644   6.432
   69DOPC   C1B   93  18.799   7.544   7.082
   69DOPC   D2B   94  18.789   7.534   6.682
   69DOPC   C3B   95  19.139   7.714   6.512
   69DOPC   C4B   96  19.479   7.514   6.362
   70DOPC   NC3   97   7.289   6.544   7.942
   70DOPC   PO4   98   6.869   6.594   7.722
   70DOPC   GL1   99   6.979   6.574   7.252
   70DOPC   GL2  100   6.739   6.744   7.042
   70DOPC   C1A  101   7.209   6.574   6.932
   70DOPC   D2A  102   7.359   6.634   6.532
   70DOPC   C3A  103   7.209   6.874   6.212
   70DOPC   C4A  104   6.799   6.894   6.022
   70DOPC   C1B  105   6.699   6.714   6.692
   70DOPC   D2B  106   6.449   6.604   6.402
   70DOPC   C3B  107   6.439   6.154   6.402
   70DOPC   C4B  108   6.679   5.794   6.592
   71DOPC   NC3  109  17.569   2.154   7.762
   71DOPC   PO4  110  17.749   1.814   7.612
   71DOPC   GL1  111  17.439   1.864   7.182
   71DOPC   GL2  112  17.249   1.694   7.052
   71DOPC   C1A  113  17.649   1.974   6.842
   71DOPC   D2A  114  17.309   2.154   6.532
   71DOPC   C3A  115  17.429   2.064   6.092
   71DOPC   C4A  116  17.449   2.164   5.622
   71DOPC   C1B  117  17.249   1.684   6.642
   71DOPC   D2B  118  16.989   1.764   6.312
   71DOPC   C3B  119  16.949   1.594   5.932
   71DOPC   C4B  120  16.739   1.344   5.612
   72DOPC   NC3  121  10.729   1.474   7.832
   72DOPC   PO4  122  10.349   1.544   7.562
   72DOPC   GL1  123  10.279   1.624   7.152
   72DOPC   GL2  124  10.309   1.924   7.162
   72DOPC   C1A  125   9.939   1.734   6.832
   72DOPC   D2A  126   9.749   1.604   6.452
   72DOPC   C3A  127   9.799   1.804   6.042
   72DOPC   C4A  128   9.709   2.224   5.812
   72DOPC   C1B  129  10.399   2.014   6.722
   72DOPC   D2B  130  10.529   2.344   6.492
   72DOPC   C3B  131  10.159   2.484   6.082
   72DOPC   C4B  132   9.839   2.774   5.902
   73DOPC   NC3  133  14.319   8.704   8.462
   73DOPC   PO4  134  14.169   9.014   8.342
   73DOPC   GL1  135  14.019   9.074   7.962
   73DOPC   GL2  136  14.259   9.194   7.782
   73DOPC   C1A  137  13.719   9.394   7.702
   73DOPC   D2A  138  13.509   9.534   7.382
   73DOPC   C3A  139  13.579   9.754   7.072
   73DOPC   C4A  140  13.449   9.854   6.592
   73DOPC   C1B  141  14.519   8.994   7.472
   73DOPC   D2B  142  14.599   9.084   7.032
   73DOPC   C3B  143  14.909   9.184   6.762
   73DOPC   C4B  144  15.129   9.074   6.502
   74DOPC   NC3  145  14.269   4.264   4.352
   74DOPC   PO4  146  13.829   4.064   4.232
   74DOPC   GL1  147  13.889   4.084   4.672
   74DOPC   GL2  148  13.899   3.704   4.812
   74DOPC   C1A  149  14.009   4.434   4.952
   74DOPC   D2A  150  13.919   4.714   5.362
   74DOPC   C3A  151  14.209   4.784   5.512
   74DOPC   C4A  152  14.409   4.724   5.762
   74DOPC   C1B  153  13.779   3.954   5.132
   74DOPC   D2B  154  13.989   4.204   5.452
   74DOPC   C3B  155  14.359   4.274   5.402
   74DOPC   C4B  156  14.639   4.554   5.302
   75DOPC   NC3  157  25.756  16.994   7.592
   75DOPC   PO4  158  25.359  17.084   7.452
   75DOPC   GL1  159  25.489  17.004   7.052
   75DOPC   GL2  160  25.379  17.284   6.852
   75DOPC   C1A  161  25.429  16.914   6.522
   75DOPC   D2A  162  25.359  17.114   6.062
   75DOPC   C3A  163  24.899  17.124   5.942
   75DOPC   C4A  164  24.589  16.824   5.982
   75DOPC   C1B  165  24.899  17.104   6.752
   75DOPC   D2B  166  24.809  16.904   6.422
   75DOPC   C3B  167  24.369  16.774   6.572
   75DOPC   C4B  168  24.049  16.764   6.772
   76DOPC   NC3  169   4.549   2.934   7.402
   76DOPC   PO4  170   4.749   2.474   7.412
   76DOPC   GL1  171   4.889   2.594   7.062
   76DOPC   GL2  172   5.119   2.754   7.162
   76DOPC   C1A  173   4.979   2.764   6.502
   76DOPC   D2A  174   5.049   2.494   6.022
   76DOPC   C3A  175   5.369   2.614   5.762
   76DOPC   C4A  176   5.469   2.514   5.302
   76DOPC   C1B  177   5.369   2.874   6.792
   76DOPC   D2B  178   5.749   2.804   6.732
   76DOPC   C3B  179   5.959   2.364   6.592
   76DOPC   C4B  180   5.689   2.084   6.552
   77DOPC   NC3  181  20.679   3.014   7.982
   77DOPC   PO4  182  20.649   3.124   7.542
   77DOPC   GL1  183  20.629   3.234   7.112
   77DOPC   GL2  184  20.239   3.434   6.972
   77DOPC   C1A  185  20.569   2.934   6.772
   77DOPC   D2A  186  20.349   2.524   6.752
   77DOPC   C3A  187  20.309   2.144   6.542
   77DOPC   C4A  188  20.439   1.994   6.132
   77DOPC   C1B  189  20.229   3.314   6.572
   77DOPC   D2B  190  20.359   3.334   6.122
   77DOPC   C3B  191  20.439   3.704   5.932
   77DOPC   C4B  192  20.339   4.164   5.882
   78DOPC   NC3  193  24.689   6.694   6.892
   78DOPC   PO4  194  24.959   7.064   6.772
   78DOPC   GL1  195  24.829   7.194   6.232
   78DOPC   GL2  196  24.749   7.414   6.032
   78DOPC   C1A  197  24.589   6.864   5.922
   78DOPC   D2A  198  24.489   6.714   5.522
   78DOPC   C3A  199  24.649   6.664   5.102
   78DOPC   C4A  200  24.959   6.854   4.862
   78DOPC   C1B  201  25.009   7.374   5.722
   78DOPC   D2B  202  24.889   7.214   5.272
   78DOPC   C3B  203  25.109   7.304   4.852
   78DOPC   C4B  204  25.099   7.174   4.452
   79DOPC   NC3  205   6.039   4.524   7.392
   79DOPC   PO4  206   5.749   4.894   7.512
   79DOPC   GL1  207   5.859   4.994   7.152
   79DOPC   GL2  208   6.219   4.884   7.052
   79DOPC   C1A  209   5.869   4.984   6.672
   79DOPC   D2A  210   5.749   4.524   6.452
   79DOPC   C3A  211   5.339   4.514   6.512
   79DOPC   C4A  212   4.979   4.244   6.712
   79DOPC   C1B  213   6.299   4.684   6.692
   79DOPC   D2B  214   6.199   4.664   6.232
   79DOPC   C3B  215   6.219   5.094   6.152
   79DOPC   C4B  216   6.469   5.464   6.202
   80DOPC   NC3  217  16.269  22.461   7.592
   80DOPC   PO4  218  15.849  22.711   7.682
   80DOPC   GL1  219  15.829  22.731   7.252
   80DOPC   GL2  220  15.729  23.011   7.122
   80DOPC   C1A  221  16.169  22.701   6.902
   80DOPC   D2A  222  16.549  22.671   6.592
   80DOPC   C3A  223  16.509  22.721   6.232
   80DOPC   C4A  224  16.829  22.731   5.892
   80DOPC   C1B  225  15.789  23.231   6.672
   80DOPC   D2B  226  15.709  23.111   6.162
   80DOPC   C3B  227  15.549  23.371   5.902
   80DOPC   C4B  228  15.639  23.751   5.962
   81DOPC   NC3  229   7.999  14.634   4.282
   81DOPC   PO4  230   7.589  14.604   4.152
   81DOPC   GL1  231   7.579  14.484   4.542
   81DOPC   GL2  232   7.819  14.584   4.702
   81DOPC   C1A  233   7.339  14.594   4.972
   81DOPC   D2A  234   7.019  14.824   5.182
   81DOPC   C3A  235   6.789  14.944   5.472
   81DOPC   C4A  236   6.879  14.944   6.032
   81DOPC   C1B  237   7.869  14.744   5.082
   81DOPC   D2B  238   7.639  14.774   5.342
   81DOPC   C3B  239   7.679  14.814   5.692
   81DOPC   C4B  240   8.089  15.004   5.932
   82DOPC   NC3  241  14.769  17.004   8.172
   82DOPC   PO4  242  14.859  16.574   8.142
   82DOPC   GL1  243  14.719  16.574   7.622
   82DOPC   GL2  244  14.529  16.344   7.592
   82DOPC   C1A  245  14.979  16.664   7.232
   82DOPC   D2A  246  15.169  16.554   6.812
   82DOPC   C3A  247  15.509  16.714   6.502
   82DOPC   C4A  248  15.709  16.684   6.162
   82DOPC   C1B  249  14.419  16.574   7.202
   82DOPC   D2B  250  14.569  16.564   6.702
   82DOPC   C3B  251  14.489  16.774   6.342
   82DOPC   C4B  252  14.709  16.844   6.082
   83DOPC   NC3  253   8.799  18.154   8.332
   83DOPC   PO4  254   8.989  18.284   8.062
   83DOPC   GL1  255   8.769  18.284   7.772
   83DOPC   GL2  256   8.719  18.594   7.812
   83DOPC   C1A  257   8.769  18.294   7.262
   83DOPC   D2A  258   9.039  18.114   6.962
   83DOPC   C3A  259   9.279  18.364   6.762
   83DOPC   C4A  260   9.189  18.544   6.382
   83DOPC   C1B  261   8.789  18.744   7.452
   83DOPC   D2B  262   8.989  18.704   7.092
   83DOPC   C3B  263   8.959  18.804   6.732
   83DOPC   C4B  264   8.819  19.144   6.572
   84DOPC   NC3  265  12.019  17.674   5.002
   84DOPC   PO4  266  11.619  17.754   4.742
   84DOPC   GL1  267  11.629  17.964   5.262
   84DOPC   GL2  268  11.899  18.074   5.312
   84DOPC   C1A  269  11.379  17.814   5.642
   84DOPC   D2A  270  11.149  17.554   5.912
   84DOPC   C3A  271  11.069  17.594   6.392
   84DOPC   C4A  272  10.939  17.704   6.792
   84DOPC   C1B  273  11.929  17.804   5.692
   84DOPC   D2B  274  11.699  17.634   5.932
   84DOPC   C3B  275  11.609  17.804   6.322
   84DOPC   C4B  276  11.429  17.814   6.722
   85DOPC   NC3  277  22.349  12.514   7.622
   85DOPC   PO4  278  22.219  12.934   7.562
   85DOPC   GL1  279  22.459  13.044   7.202
   85DOPC   GL2  280  22.649  12.904   6.962
   85DOPC   C1A  281  22.379  13.384   6.932
   85DOPC   D2A  282  22.379  13.694   6.582
   85DOPC   C3A  283  22.139  13.714   6.252
   85DOPC   C4A  284  22.069  13.844   5.822
   85DOPC   C1B  285  22.719  12.514   6.822
   85DOPC   D2B  286  23.109  12.254   6.762
   85DOPC   C3B  287  23.419  12.344   6.582
   85DOPC   C4B  288  23.569  12.714   6.512
   86DOPC   NC3  289  14.119   4.084   8.142
   86DOPC   PO4  290  14.039   4.514   8.152
   86DOPC   GL1  291  13.979   4.614   7.802
   86DOPC   GL2  292  13.939   4.304   7.692
   86DOPC   C1A  293  14.239   4.644   7.452
   86DOPC   D2A  294  14.409   4.574   7.052
   86DOPC   C3A  295  14.489   4.974   6.752
   86DOPC   C4A  296  14.609   5.414   6.612
   86DOPC   C1B  297  13.909   4.014   7.392
   86DOPC   D2B  298  13.959   3.654   7.022
   86DOPC   C3B  299  14.009   3.844   6.582
   86DOPC   C4B  300  13.769   3.974   6.162
   87DOPC   NC3  301   4.569  21.771   3.552
   87DOPC   PO4  302   4.569  21.951   3.872
   87DOPC   GL1  303   4.539  21.961   4.312
   87DOPC   GL2  304   4.489  22.261   4.382
   87DOPC   C1A  305   4.559  21.511   4.472
   87DOPC   D2A  306   4.729  21.334   4.762
   87DOPC   C3A  307   4.469  21.381   5.202
   87DOPC   C4A  308   4.299  21.194   5.562
   87DOPC   C1B  309   4.819  22.501   4.662
   87DOPC   D2B  310   5.119  22.721   5.012
   87DOPC   C3B  311   5.059  22.861   5.432
   87DOPC   C4B  312   5.089  23.191   5.822
   88DOPC   NC3  313   7.859  15.134   8.732
   88DOPC   PO4  314   8.179  15.014   8.442
   88DOPC   GL1  315   8.319  14.714   8.082
   88DOPC   GL2  316   8.479  14.414   8.062
   88DOPC   C1A  317   8.589  14.814   7.642
   88DOPC   D2A  318   8.549  14.924   7.162
   88DOPC   C3A  319   8.609  14.804   6.682
   88DOPC   C4A  320   8.959  14.784   6.522
   88DOPC   C1B  321   8.899  14.364   7.792
   88DOPC   D2B  322   9.059  14.464   7.492
   88DOPC   C3B  323   8.849  14.434   7.052
   88DOPC   C4B  324   8.689  14.114   6.722
   89DOPC   NC3  325   9.679   2.764   7.862
   89DOPC   PO4  326   9.199   2.884   7.972
   89DOPC   GL1  327   9.259   2.734   7.572
   89DOPC   GL2  328   8.989   2.694   7.382
   89DOPC   C1A  329   9.479   2.754   7.162
   89DOPC   D2A  330   9.529   2.684   6.772
   89DOPC   C3A  331   9.639   2.374   6.422
   89DOPC   C4A  332  10.049   2.054   6.412
   89DOPC   C1B  333   9.069   2.594   6.942
   89DOPC   D2B  334   9.159   2.644   6.472
   89DOPC   C3B  335   8.889   2.494   6.262
   89DOPC   C4B  336   8.659   2.274   6.042
   90DOPC   NC3  337  17.429   9.984   8.072
   90DOPC   PO4  338  17.409  10.504   7.922
   90DOPC   GL1  339  17.299  10.134   7.632
   90DOPC   GL2  340  16.959  10.244   7.582
   90DOPC   C1A  341  17.349  10.084   7.292
   90DOPC   D2A  342  17.199  10.104   6.892
   90DOPC   C3A  343  17.229  10.014   6.462
   90DOPC   C4A  344  17.459  10.004   6.142
   90DOPC   C1B  345  17.179  10.544   7.262
   90DOPC   D2B  346  17.619  10.584   7.282
   90DOPC   C3B  347  17.859  10.344   7.082
   90DOPC   C4B  348  17.619  10.264   6.792
   91DOPC   NC3  349   7.889   6.064   8.382
   91DOPC   PO4  350   7.879   6.194   7.912
   91DOPC   GL1  351   7.999   6.034   7.492
   91DOPC   GL2  352   8.319   5.974   7.372
   91DOPC   C1A  353   7.999   6.204   7.022
   91DOPC   D2A  354   8.099   6.134   6.682
   91DOPC   C3A  355   8.219   5.884   6.372
   91DOPC   C4A  356   8.469   5.654   6.072
   91DOPC   C1B  357   8.319   5.854   7.022
   91DOPC   D2B  358   8.259   5.524   6.682
   91DOPC   C3B  359   8.119   5.334   6.242
   91DOPC   C4B  360   7.829   5.434   5.922
   92DOPC   NC3  361  24.609   4.534   2.882
   92DOPC   PO4  362  24.429   4.994   2.822
   92DOPC   GL1  363  24.629   5.074   3.282
   92DOPC   GL2  364  24.519   4.684   3.412
   92DOPC   C1A  365  24.939   4.924   3.642
   92DOPC   D2A  366  25.179   5.114   3.982
   92DOPC   C3A  367  25.279   5.024   4.382
   92DOPC   C4A  368  25.359   4.934   4.852
   92DOPC   C1B  369  24.479   4.764   3.772
   92DOPC   D2B  370  24.289   4.914   4.202
   92DOPC   C3B  371  24.439   4.694   4.602
   92DOPC   C4B  372  24.309   4.374   4.702
   93DOPC   NC3  373  13.739  15.794   9.202
   93DOPC   PO4  374  13.719  15.664   8.772
   93DOPC   GL1  375  13.389  15.544   8.402
   93DOPC   GL2  376  13.039  15.534   8.462
   93DOPC   C1A  377  13.329  15.234   8.072
   93DOPC   D2A  378  12.909  15.054   7.922
   93DOPC   C3A  379  12.849  15.174   7.602
   93DOPC   C4A  380  12.499  15.134   7.332
   93DOPC   C1B  381  12.689  15.524   8.102
   93DOPC   D2B  382  12.809  15.684   7.722
   93DOPC   C3B  383  12.779  16.064   7.792
   93DOPC   C4B  384  12.659  16.514   7.822
   94DOPC   NC3  385   7.019   0.984   8.362
   94DOPC   PO4  386   7.419   0.954   7.952
   94DOPC   GL1  387   7.199   0.934   7.552
   94DOPC   GL2  388   7.449   0.894   7.422
   94DOPC   C1A  389   7.029   1.054   7.202
   94DOPC   D2A  390   6.789   1.114   6.842
   94DOPC   C3A  391   6.709   0.904   6.482
   94DOPC   C4A  392   6.839   0.914   5.962
   94DOPC   C1B  393   7.429   1.344   7.322
   94DOPC   D2B  394   7.499   1.644   7.172
   94DOPC   C3B  395   7.709   1.564   6.812
   94DOPC   C4B  396   7.689   1.724   6.412
   95DOPC   NC3  397  13.839  24.541   8.202
   95DOPC   PO4  398  13.789  24.581   7.852
   95DOPC   GL1  399  13.899  24.511   7.462
   95DOPC   GL2  400  13.759  24.411   7.242
   95DOPC   C1A  401  14.159  24.681   7.032
   95DOPC   D2A  402  14.269  24.701   6.622
   95DOPC   C3A  403  14.389  25.051   6.352
   95DOPC   C4A  404  14.519  25.411   6.472
   95DOPC   C1B  405  13.799  24.591   6.712
   95DOPC   D2B  406  13.469  24.781   6.442
   95DOPC   C3B  407  13.179  24.991   6.532
   95DOPC   C4B  408  12.709  25.161   6.482
   96DOPC   NC3  409  22.459  13.484   7.542
   96DOPC   PO4  410  22.719  13.904   7.412
   96DOPC   GL1  411  22.719  13.694   7.022
   96DOPC   GL2  412  22.869  13.414   6.992
   96DOPC   C1A  413  22.859  13.804   6.632
   96DOPC   D2A  414  23.039  13.634   6.252
   96DOPC   C3A  415  23.229  13.904   5.922
   96DOPC   C4A  416  23.599  14.154   5.712
   96DOPC   C1B  417  22.759  13.334   6.632
   96DOPC   D2B  418  22.919  13.154   6.352
   96DOPC   C3B  419  23.039  13.074   5.992
   96DOPC   C4B  420  23.319  12.694   5.772
   97DOPC   NC3  421   5.599   7.794   2.982
   97DOPC   PO4  422   5.219   7.604   2.862
   97DOPC   GL1  423   5.059   7.434   3.312
   97DOPC   GL2  424   5.199   7.304   3.542
   97DOPC   C1A  425   4.659   7.614   3.502
   97DOPC   D2A  426   4.219   7.414   3.382
   97DOPC   C3A  427   3.839   7.194   3.422
   97DOPC   C4A  428   3.539   7.334   3.552
   97DOPC   C1B  429   5.209   7.514   3.912
   97DOPC   D2B  430   4.919   7.804   4.152
   97DOPC   C3B  431   4.649   7.814   4.512
   97DOPC   C4B  432   4.699   7.644   4.942
   98DOPC   NC3  433   7.379  11.524   7.882
   98DOPC   PO4  434   7.809  11.304   7.972
   98DOPC   GL1  435   7.919  11.084   7.472
   98DOPC   GL2  436   7.979  10.744   7.402
   98DOPC   C1A  437   8.039  11.134   7.062
   98DOPC   D2A  438   8.369  11.394   6.992
   98DOPC   C3A  439   8.769  11.224   6.802
   98DOPC   C4A  440   8.829  11.214   6.412
   98DOPC   C1B  441   8.009  10.584   6.952
   98DOPC   D2B  442   8.179  10.394   6.572
   98DOPC   C3B  443   8.429  10.644   6.302
   98DOPC   C4B  444   8.349  10.994   6.042
   99DOPC   NC3  445  12.859  14.524   9.402
   99DOPC   PO4  446  12.849  14.914   9.402
   99DOPC   GL1  447  12.849  14.844   9.022
   99DOPC   GL2  448  13.059  15.014   8.832
   99DOPC   C1A  449  12.789  14.494   8.662
   99DOPC   D2A  450  12.289  14.354   8.542
   99DOPC   C3A  451  11.889  14.214   8.782
   99DOPC   C4A  452  11.469  14.254   8.552
   99DOPC   C1B  453  13.139  15.024   8.442
   99DOPC   D2B  454  13.179  14.704   8.152
   99DOPC   C3B  455  12.989  14.584   7.772
   99DOPC   C4B  456  12.779  14.664   7.452
  100DOPC   NC3  457  20.599  18.074   7.552
  100DOPC   PO4  458  20.299  18.294   7.362
  100DOPC   GL1  459  20.229  18.344   6.942
  100DOPC   GL2  460  20.099  18.634   6.822
  100DOPC   C1A  461  20.069  18.204   6.572
  100DOPC   D2A  462  19.719  18.094   6.342
  100DOPC   C3A  463  19.479  18.174   6.002
  100DOPC   C4A  464  19.689  18.394   5.662
  100DOPC   C1B  465  20.299  18.674   6.392
  100DOPC   D2B  466  20.499  18.694   6.062
  100DOPC   C3B  467  20.229  18.464   5.612
  100DOPC   C4B  468  20.089  18.434   5.252
  101DOPC   NC3  469  15.709  21.681   3.782
  101DOPC   PO4  470  15.649  22.081   3.872
  101DOPC   GL1  471  15.519  21.901   4.202
  101DOPC   GL2  472  15.619  21.581   4.292
  101DOPC   C1A  473  15.319  21.831   4.592
  101DOPC   D2A  474  15.229  21.731   5.002
  101DOPC   C3A  475  14.939  22.041   5.072
  101DOPC   C4A  476  14.749  22.461   5.102
  101DOPC   C1B  477  15.679  21.511   4.762
  101DOPC   D2B  478  15.929  21.451   5.002
  101DOPC   C3B  479  16.279  21.731   5.192
  101DOPC   C4B  480  16.579  21.761   5.482
  102DOPC   NC3  481   1.329   5.124   6.952
  102DOPC   PO4  482   0.889   5.214   6.922
  102DOPC   GL1  483   1.019   5.064   6.542
  102DOPC   GL2  484   0.899   4.804   6.442
  102DOPC   C1A  485   1.079   5.084   6.082
  102DOPC   D2A  486   1.119   5.344   5.702
  102DOPC   C3A  487   1.009   5.194   5.212
  102DOPC   C4A  488   0.549   5.024   5.112
  102DOPC   C1B  489   1.219   4.664   6.172
  102DOPC   D2B  490   1.279   4.384   5.852
  102DOPC   C3B  491   0.959   4.204   5.582
  102DOPC   C4B  492   0.699   4.164   5.272
  103DOPC   NC3  493   2.889  22.101   7.642
  103DOPC   PO4  494   2.509  21.811   7.652
  103DOPC   GL1  495   2.519  21.991   7.292
  103DOPC   GL2  496   2.599  21.691   7.172
  103DOPC   C1A  497   2.389  22.041   6.842
  103DOPC   D2A  498   2.219  22.121   6.332
  103DOPC   C3A  499   1.799  21.971   6.252
  103DOPC   C4A  500   1.749  21.611   6.232
  103DOPC   C1B  501   2.659  21.631   6.762
  103DOPC   D2B  502   2.599  21.831   6.392
  103DOPC   C3B  503   2.959  21.751   6.212
  103DOPC   C4B  504   3.329  21.571   6.002
  104DOPC   NC3  505  15.459   4.744   4.432
  104DOPC   PO4  506  15.259   4.324   4.422
  104DOPC   GL1  507  15.249   4.354   4.812
  104DOPC   GL2  508  15.539   4.454   4.842
  104DOPC   C1A  509  15.299   3.964   5.052
  104DOPC   D2A  510  15.459   3.614   5.302
  104DOPC   C3A  511  15.509   3.544   5.682
  104DOPC   C4A  512  15.769   3.414   6.102
  104DOPC   C1B  513  15.349   4.494   5.272
  104DOPC   D2B  514  15.039   4.824   5.442
  104DOPC   C3B  515  15.309   4.874   5.712
  104DOPC   C4B  516  15.429   4.854   6.212
  105DOPC   NC3  517  23.719  -0.286   7.612
  105DOPC   PO4  518  23.539   0.064   7.412
  105DOPC   GL1  519  23.779   0.184   7.082
  105DOPC   GL2  520  23.609   0.334   6.822
  105DOPC   C1A  521  23.979   0.014   6.722
  105DOPC   D2A  522  23.989   0.124   6.292
  105DOPC   C3A  523  23.689  -0.056   6.032
  105DOPC   C4A  524  23.309   0.254   5.952
  105DOPC   C1B  525  23.549   0.264   6.472
  105DOPC   D2B  526  23.719   0.484   6.092
  105DOPC   C3B  527  24.049   0.374   5.812
  105DOPC   C4B  528  24.459   0.224   5.962
  106DOPC   NC3  529   1.559  15.404   3.192
  106DOPC   PO4  530   1.409  15.484   3.612
  106DOPC   GL1  531   1.539  15.484   3.982
  106DOPC   GL2  532   1.699  15.754   3.902
  106DOPC   C1A  533   1.719  15.284   4.412
  106DOPC   D2A  534   1.549  15.064   4.712
  106DOPC   C3A  535   1.759  15.204   5.072
  106DOPC   C4A  536   2.189  15.344   5.192
  106DOPC   C1B  537   1.799  15.764   4.302
  106DOPC   D2B  538   1.749  15.644   4.782
  106DOPC   C3B  539   2.069  15.824   5.102
  106DOPC   C4B  540   2.269  15.734   5.482
  107DOPC   NC3  541  20.889  14.924   7.482
  107DOPC   PO4  542  20.449  14.784   7.352
  107DOPC   GL1  543  20.319  15.104   7.122
  107DOPC   GL2  544  20.039  15.234   7.192
  107DOPC   C1A  545  20.479  15.444   6.922
  107DOPC   D2A  546  20.629  15.454   6.532
  107DOPC   C3A  547  20.899  15.584   6.202
  107DOPC   C4A  548  21.059  15.754   5.882
  107DOPC   C1B  549  20.079  15.174   6.722
  107DOPC   D2B  550  20.169  15.054   6.352
  107DOPC   C3B  551  20.149  14.634   6.222
  107DOPC   C4B  552  20.279  14.534   5.892
  108DOPC   NC3  553  20.849   3.894   3.812
  108DOPC   PO4  554  21.009   3.634   3.562
  108DOPC   GL1  555  21.099   3.574   4.052
  108DOPC   GL2  556  21.459   3.624   4.062
  108DOPC   C1A  557  21.219   3.454   4.482
  108DOPC   D2A  558  21.259   3.314   4.932
  108DOPC   C3A  559  21.659   3.304   5.252
  108DOPC   C4A  560  21.889   3.324   5.672
  108DOPC   C1B  561  21.589   3.334   4.182
  108DOPC   D2B  562  21.919   2.904   4.252
  108DOPC   C3B  563  22.009   2.584   4.442
  108DOPC   C4B  564  22.019   2.304   4.712
  109DOPC   NC3  565   7.329   2.964   4.012
  109DOPC   PO4  566   7.419   2.454   3.922
  109DOPC   GL1  567   7.229   2.564   4.422
  109DOPC   GL2  568   6.929   2.704   4.562
  109DOPC   C1A  569   7.269   2.664   4.892
  109DOPC   D2A  570   7.469   2.944   5.182
  109DOPC   C3A  571   7.479   2.984   5.592
  109DOPC   C4A  572   7.209   2.674   5.782
  109DOPC   C1B  573   6.849   2.974   4.842
  109DOPC   D2B  574   7.069   3.234   5.152
  109DOPC   C3B  575   7.439   3.534   5.262
  109DOPC   C4B  576   7.659   3.864   5.432
  110DOPC   NC3  577   8.179  13.264   4.282
  110DOPC   PO4  578   8.609  13.124   4.262
  110DOPC   GL1  579   8.589  13.154   4.702
  110DOPC   GL2  580   8.259  13.224   4.752
  110DOPC   C1A  581   8.639  12.974   5.122
  110DOPC   D2A  582   8.579  12.634   5.382
  110DOPC   C3A  583   8.419  12.374   5.352
  110DOPC   C4A  584   8.369  12.064   5.102
  110DOPC   C1B  585   7.849  13.084   5.002
  110DOPC   D2B  586   7.639  12.944   5.392
  110DOPC   C3B  587   7.299  13.074   5.672
  110DOPC   C4B  588   7.269  13.114   6.112
  111DOPC   NC3  589  17.049  13.894   8.302
  111DOPC   PO4  590  17.409  13.864   8.032
  111DOPC   GL1  591  17.349  13.604   7.662
  111DOPC   GL2  592  17.019  13.334   7.702
  111DOPC   C1A  593  17.049  13.604   7.302
  111DOPC   D2A  594  16.879  13.534   7.092
  111DOPC   C3A  595  16.709  13.524   6.642
  111DOPC   C4A  596  16.809  13.654   6.252
  111DOPC   C1B  597  16.929  12.994   7.492
  111DOPC   D2B  598  16.789  13.044   7.102
  111DOPC   C3B  599  16.859  12.744   6.682
  111DOPC   C4B  600  16.779  12.884   6.262
  112DOPC   NC3  601  19.189  13.074   3.862
  112DOPC   PO4  602  19.009  13.444   4.072
  112DOPC   GL1  603  18.989  13.314   4.522
  112DOPC   GL2  604  19.069  12.954   4.732
  112DOPC   C1A  605  18.679  13.434   4.832
  112DOPC   D2A  606  18.279  13.564   5.152
  112DOPC   C3A  607  18.319  13.514   5.632
  112DOPC   C4A  608  18.579  13.404   5.932
  112DOPC   C1B  609  19.089  13.124   4.992
  112DOPC   D2B  610  19.189  13.284   5.412
  112DOPC   C3B  611  19.039  13.124   5.692
  112DOPC   C4B  612  18.949  13.214   6.142
  113DOPC   NC3  613  24.979  18.984   7.902
  113DOPC   PO4  614  25.089  19.314   7.502
  113DOPC   GL1  615  25.029  19.244   7.062
  113DOPC   GL2  616  24.829  18.944   6.882
  113DOPC   C1A  617  25.029  19.124   6.552
  113DOPC   D2A  618  24.999  18.724   6.252
  113DOPC   C3A  619  25.199  18.604   6.002
  113DOPC   C4A  620  25.479  18.304   5.752
  113DOPC   C1B  621  24.589  18.754   6.572
  113DOPC   D2B  622  24.639  18.344   6.302
  113DOPC   C3B  623  24.669  18.354   5.822
  113DOPC   C4B  624  24.549  18.454   5.372
  114DOPC   NC3  625   8.229  19.354   8.262
  114DOPC   PO4  626   8.509  19.624   8.542
  114DOPC   GL1  627   8.519  19.904   8.132
  114DOPC   GL2  628   8.259  20.084   7.972
  114DOPC   C1A  629   8.729  20.234   7.762
  114DOPC   D2A  630   8.799  20.154   7.252
  114DOPC   C3A  631   9.029  20.144   6.812
  114DOPC   C4A  632   9.109  19.874   6.452
  114DOPC   C1B  633   8.339  20.044   7.522
  114DOPC   D2B  634   8.319  20.014   7.112
  114DOPC   C3B  635   8.549  19.924   6.812
  114DOPC   C4B  636   8.869  19.684   6.812
  115DOPC   NC3  637  12.309  16.344   5.002
  115DOPC   PO4  638  12.479  16.634   4.792
  115DOPC   GL1  639  12.589  16.654   5.232
  115DOPC   GL2  640  12.289  16.754   5.492
  115DOPC   C1A  641  12.729  16.424   5.632
  115DOPC   D2A  642  12.689  16.184   6.002
  115DOPC   C3A  643  12.289  16.004   6.162
  115DOPC   C4A  644  11.909  15.994   5.882
  115DOPC   C1B  645  12.299  16.454   5.852
  115DOPC   D2B  646  12.399  16.594   6.242
  115DOPC   C3B  647  12.479  16.994   6.162
  115DOPC   C4B  648  12.709  17.354   5.952
  116DOPC   NC3  649  23.319   8.594   6.962
  116DOPC   PO4  650  22.969   8.704   6.862
  116DOPC   GL1  651  23.019   8.834   6.502
  116DOPC   GL2  652  22.699   8.824   6.332
  116DOPC   C1A  653  23.149   9.254   6.342
  116DOPC   D2A  654  23.019   9.534   6.032
  116DOPC   C3A  655  23.149   9.374   5.712
  116DOPC   C4A  656  23.079   9.614   5.422
  116DOPC   C1B  657  22.869   9.024   5.972
  116DOPC   D2B  658  22.829   8.924   5.572
  116DOPC   C3B  659  22.649   8.674   5.302
  116DOPC   C4B  660  22.279   8.494   5.092
  117DOPC   NC3  661   8.659  12.604   4.022
  117DOPC   PO4  662   8.979  12.574   4.362
  117DOPC   GL1  663   8.729  12.604   4.752
  117DOPC   GL2  664   8.999  12.744   4.932
  117DOPC   C1A  665   8.369  12.594   4.922
  117DOPC   D2A  666   8.139  12.824   5.272
  117DOPC   C3A  667   8.259  13.054   5.762
  117DOPC   C4A  668   8.189  13.444   6.032
  117DOPC   C1B  669   9.049  12.754   5.352
  117DOPC   D2B  670   9.269  13.024   5.672
  117DOPC   C3B  671   9.019  13.244   6.012
  117DOPC   C4B  672   8.599  13.254   6.082
  118DOPC   NC3  673   0.799  17.744   7.602
  118DOPC   PO4  674   0.609  18.214   7.582
  118DOPC   GL1  675   0.699  18.204   7.132
  118DOPC   GL2  676   0.919  18.024   7.022
  118DOPC   C1A  677   0.629  18.254   6.702
  118DOPC   D2A  678   0.549  18.294   6.272
  118DOPC   C3A  679   0.489  18.634   6.002
  118DOPC   C4A  680   0.549  19.044   5.762
  118DOPC   C1B  681   1.119  18.134   6.622
  118DOPC   D2B  682   1.039  18.044   6.252
  118DOPC   C3B  683   1.209  17.714   5.932
  118DOPC   C4B  684   1.239  17.324   5.722
  119DOPC   NC3  685   4.009   5.104   7.552
  119DOPC   PO4  686   4.029   5.174   7.082
  119DOPC   GL1  687   4.099   5.144   6.642
  119DOPC   GL2  688   3.929   4.754   6.462
  119DOPC   C1A  689   4.139   5.304   6.222
  119DOPC   D2A  690   4.189   5.224   5.792
  119DOPC   C3A  691   4.539   5.124   5.522
  119DOPC   C4A  692   4.889   5.214   5.332
  119DOPC   C1B  693   4.199   4.784   6.072
  119DOPC   D2B  694   4.549   4.594   5.682
  119DOPC   C3B  695   4.669   4.134   5.722
  119DOPC   C4B  696   4.489   3.764   5.952
  120DOPC   NC3  697  22.119  16.294   7.912
  120DOPC   PO4  698  21.839  16.274   7.622
  120DOPC   GL1  699  21.749  16.534   7.262
  120DOPC   GL2  700  21.589  16.804   7.262
  120DOPC   C1A  701  21.609  16.524   6.842
  120DOPC   D2A  702  21.769  16.624   6.412
  120DOPC   C3A  703  22.229  16.504   6.162
  120DOPC   C4A  704  22.389  16.364   5.702
  120DOPC   C1B  705  21.579  17.044   6.862
  120DOPC   D2B  706  21.789  17.154   6.652
  120DOPC   C3B  707  22.069  17.054   6.282
  120DOPC   C4B  708  22.229  17.394   6.002
  121DOPC   NC3  709   5.679  16.344   8.292
  121DOPC   PO4  710   5.409  16.734   8.052
  121DOPC   GL1  711   5.499  16.714   7.552
  121DOPC   GL2  712   5.209  16.704   7.422
  121DOPC   C1A  713   5.679  16.664   7.132
  121DOPC   D2A  714   5.819  16.484   6.792
  121DOPC   C3A  715   5.709  16.184   6.502
  121DOPC   C4A  716   5.679  16.314   6.122
  121DOPC   C1B  717   5.359  17.084   7.142
  121DOPC   D2B  718   5.419  17.384   6.812
  121DOPC   C3B  719   5.179  17.744   6.972
  121DOPC   C4B  720   4.859  18.054   6.932
  122DOPC   NC3  721  18.159   6.734   8.352
  122DOPC   PO4  722  17.649   6.644   8.192
  122DOPC   GL1  723  17.659   6.694   7.842
  122DOPC   GL2  724  17.369   6.604   7.732
  122DOPC   C1A  725  17.589   6.734   7.302
  122DOPC   D2A  726  17.629   6.594   6.982
  122DOPC   C3A  727  17.279   6.724   6.732
  122DOPC   C4A  728  17.089   6.994   6.372
  122DOPC   C1B  729  16.999   6.614   7.412
  122DOPC   D2B  730  16.679   6.824   7.142
  122DOPC   C3B  731  16.739   6.734   6.672
  122DOPC   C4B  732  16.559   6.884   6.292
  123DOPC   NC3  733   3.039  21.164   8.032
  123DOPC   PO4  734   3.159  20.884   7.702
  123DOPC   GL1  735   3.299  21.084   7.312
  123DOPC   GL2  736   3.329  21.421   7.222
  123DOPC   C1A  737   3.349  21.134   6.812
  123DOPC   D2A  738   3.399  20.834   6.502
  123DOPC   C3A  739   3.449  21.044   6.092
  123DOPC   C4A  740   3.769  21.204   5.812
  123DOPC   C1B  741   3.809  21.371   7.012
  123DOPC   D2B  742   3.989  21.124   6.772
  123DOPC   C3B  743   3.899  20.904   6.422
  123DOPC   C4B  744   4.159  20.484   6.202
  124DOPC   NC3  745   2.869  20.494   7.572
  124DOPC   PO4  746   2.849  20.054   7.482
  124DOPC   GL1  747   2.709  19.984   7.102
  124DOPC   GL2  748   2.449  20.264   7.202
  124DOPC   C1A  749   2.399  19.914   6.712
  124DOPC   D2A  750   2.329  19.964   6.342
  124DOPC   C3A  751   2.139  20.324   6.052
  124DOPC   C4A  752   1.939  20.644   6.062
  124DOPC   C1B  753   2.509  20.464   6.742
  124DOPC   D2B  754   2.589  20.374   6.312
  124DOPC   C3B  755   2.479  20.694   5.992
  124DOPC   C4B  756   2.589  20.954   5.732
  125DOPC   NC3  757  13.489  17.724   4.802
  125DOPC   PO4  758  13.409  17.464   4.512
  125DOPC   GL1  759  13.649  17.204   5.032
  125DOPC   GL2  760  13.629  16.894   5.012
  125DOPC   C1A  761  13.859  17.334   5.442
  125DOPC   D2A  762  13.959  17.254   5.762
  125DOPC   C3A  763  13.669  17.254   6.102
  125DOPC   C4A  764  13.599  17.204   6.512
  125DOPC   C1B  765  13.849  16.564   5.152
  125DOPC   D2B  766  13.899  16.424   5.632
  125DOPC   C3B  767  13.749  16.404   6.052
  125DOPC   C4B  768  13.599  16.454   6.382
  126DOPC   NC3  769  14.999   1.644   8.452
  126DOPC   PO4  770  15.369   1.544   8.192
  126DOPC   GL1  771  15.479   1.674   7.842
  126DOPC   GL2  772  15.569   1.964   7.952
  126DOPC   C1A  773  15.509   1.724   7.422
  126DOPC   D2A  774  15.479   2.004   7.092
  126DOPC   C3A  775  15.589   1.844   6.692
  126DOPC   C4A  776  15.449   1.614   6.412
  126DOPC   C1B  777  15.819   2.074   7.542
  126DOPC   D2B  778  15.879   2.304   7.212
  126DOPC   C3B  779  15.969   2.104   6.892
  126DOPC   C4B  780  16.019   1.804   6.512
  127DOPC   NC3  781   0.779  22.951  12.152
  127DOPC   PO4  782   0.429  23.341  12.272
  127DOPC   GL1  783   0.249  23.041  12.462
  127DOPC   GL2  784  -0.049  23.041  12.522
  127DOPC   C1A  785   0.299  22.921  12.842
  127DOPC   D2A  786   0.529  22.881  13.282
  127DOPC   C3A  787   0.589  23.121  13.462
  127DOPC   C4A  788   0.879  23.311  13.772
  127DOPC   C1B  789  -0.259  22.691  12.872
  127DOPC   D2B  790   0.011  22.731  13.282
  127DOPC   C3B  791   0.011  23.141  13.532
  127DOPC   C4B  792   0.249  23.491  13.652
  128DOPC   NC3  793  19.659  14.054   3.652
  128DOPC   PO4  794  20.039  14.014   3.752
  128DOPC   GL1  795  20.219  14.074   4.222
  128DOPC   GL2  796  20.069  14.364   4.382
  128DOPC   C1A  797  20.429  13.994   4.652
  128DOPC   D2A  798  20.459  13.654   4.892
  128DOPC   C3A  799  20.659  13.304   4.672
  128DOPC   C4A  800  20.979  13.114   4.842
  128DOPC   C1B  801  20.199  14.454   4.782
  128DOPC   D2B  802  20.309  14.804   5.102
  128DOPC   C3B  803  20.079  14.514   5.402
  128DOPC   C4B  804  19.739  14.434   5.652
  129DOPC   NC3  805  26.106  18.434   3.832
  129DOPC   PO4  806  25.716  18.384   3.882
  129DOPC   GL1  807  25.609  18.254   4.272
  129DOPC   GL2  808  25.746  18.354   4.612
  129DOPC   C1A  809  25.489  17.884   4.552
  129DOPC   D2A  810  25.319  17.734   4.912
  129DOPC   C3A  811  25.489  17.594   5.282
  129DOPC   C4A  812  25.529  17.824   5.582
  129DOPC   C1B  813  25.449  18.234   4.872
  129DOPC   D2B  814  25.459  18.294   5.272
  129DOPC   C3B  815  25.159  18.574   5.462
  129DOPC   C4B  816  25.279  18.914   5.572
  130DOPC   NC3  817  22.909  10.604   7.222
  130DOPC   PO4  818  23.209  10.524   7.042
  130DOPC   GL1  819  23.279  10.774   6.812
  130DOPC   GL2  820  22.979  10.944   6.782
  130DOPC   C1A  821  23.419  10.854   6.322
  130DOPC   D2A  822  23.629  10.874   5.872
  130DOPC   C3A  823  23.439  11.134   5.592
  130DOPC   C4A  824  23.129  10.974   5.282
  130DOPC   C1B  825  23.009  11.214   6.352
  130DOPC   D2B  826  22.919  11.294   5.962
  130DOPC   C3B  827  23.179  11.534   5.662
  130DOPC   C4B  828  23.029  11.874   5.392
  131DOPC   NC3  829   5.809   4.064   3.882
  131DOPC   PO4  830   6.179   4.394   3.892
  131DOPC   GL1  831   6.119   4.454   4.312
  131DOPC   GL2  832   6.249   4.214   4.532
  131DOPC   C1A  833   6.149   4.704   4.702
  131DOPC   D2A  834   6.079   4.974   5.012
  131DOPC   C3A  835   6.379   5.254   5.182
  131DOPC   C4A  836   6.699   5.514   5.042
  131DOPC   C1B  837   6.029   4.204   4.862
  131DOPC   D2B  838   5.789   3.874   5.122
  131DOPC   C3B  839   5.399   3.824   5.192
  131DOPC   C4B  840   5.109   4.084   5.142
  132DOPC   NC3  841  25.099  23.581   3.402
  132DOPC   PO4  842  25.229  23.761   3.802
  132DOPC   GL1  843  25.419  23.601   4.192
  132DOPC   GL2  844  25.469  23.241   4.272
  132DOPC   C1A  845  25.379  23.601   4.662
  132DOPC   D2A  846  25.599  23.871   4.872
  132DOPC   C3A  847  25.429  24.261   5.142
  132DOPC   C4A  848  25.339  24.601   4.882
  132DOPC   C1B  849  25.579  23.161   4.722
  132DOPC   D2B  850  25.766  23.381   5.042
  132DOPC   C3B  851  25.399  23.531   5.182
  132DOPC   C4B  852  24.979  23.451   5.262
  133DOPC   NC3  853   1.939  23.931   8.012
  133DOPC   PO4  854   1.599  23.841   7.652
  133DOPC   GL1  855   1.709  23.731   7.242
  133DOPC   GL2  856   1.879  23.471   7.062
  133DOPC   C1A  857   1.549  23.811   6.782
  133DOPC   D2A  858   1.259  23.981   6.612
  133DOPC   C3A  859   1.119  24.031   6.172
  133DOPC   C4A  860   1.069  23.861   5.802
  133DOPC   C1B  861   2.039  23.111   6.812
  133DOPC   D2B  862   2.089  23.041   6.422
  133DOPC   C3B  863   2.359  22.751   6.272
  133DOPC   C4B  864   2.379  22.401   5.942
  134DOPC   NC3  865  24.609   9.114   2.922
  134DOPC   PO4  866  24.369   8.754   3.032
  134DOPC   GL1  867  24.519   8.484   3.432
  134DOPC   GL2  868  24.339   8.354   3.572
  134DOPC   C1A  869  24.849   8.684   3.832
  134DOPC   D2A  870  25.149   8.684   4.162
  134DOPC   C3A  871  25.059   8.654   4.612
  134DOPC   C4A  872  24.989   8.444   4.882
  134DOPC   C1B  873  24.589   8.274   3.962
  134DOPC   D2B  874  24.689   8.594   4.282
  134DOPC   C3B  875  24.439   8.684   4.672
  134DOPC   C4B  876  24.379   9.234   4.772
  135DOPC   NC3  877   5.669   9.944   7.702
  135DOPC   PO4  878   5.749  10.234   7.352
  135DOPC   GL1  879   6.029  10.214   6.852
  135DOPC   GL2  880   6.369  10.384   6.852
  135DOPC   C1A  881   5.889  10.184   6.412
  135DOPC   D2A  882   5.659  10.144   6.032
  135DOPC   C3A  883   5.889  10.064   5.662
  135DOPC   C4A  884   6.319  10.114   5.542
  135DOPC   C1B  885   6.379  10.274   6.492
  135DOPC   D2B  886   6.709  10.084   6.232
  135DOPC   C3B  887   6.839   9.964   5.872
  135DOPC   C4B  888   6.779  10.084   5.472
  136DOPC   NC3  889  16.639  11.824   4.682
  136DOPC   PO4  890  16.819  12.114   4.382
  136DOPC   GL1  891  17.199  12.174   4.642
  136DOPC   GL2  892  17.039  12.414   4.862
  136DOPC   C1A  893  17.189  12.004   5.112
  136DOPC   D2A  894  17.089  12.264   5.372
  136DOPC   C3A  895  17.179  12.424   5.712
  136DOPC   C4A  896  17.169  12.544   6.152
  136DOPC   C1B  897  16.639  12.344   5.122
  136DOPC   D2B  898  16.519  12.254   5.492
  136DOPC   C3B  899  16.769  12.164   5.872
  136DOPC   C4B  900  17.129  12.044   6.112
  137DOPC   NC3  901  13.239   4.294   4.222
  137DOPC   PO4  902  12.919   4.324   4.442
  137DOPC   GL1  903  12.899   4.234   4.872
  137DOPC   GL2  904  12.609   4.184   5.092
  137DOPC   C1A  905  13.079   3.964   5.182
  137DOPC   D2A  906  12.809   3.924   5.592
  137DOPC   C3A  907  12.419   4.114   5.782
  137DOPC   C4A  908  12.279   4.174   6.172
  137DOPC   C1B  909  12.579   3.784   5.102
  137DOPC   D2B  910  12.269   3.524   5.302
  137DOPC   C3B  911  12.349   3.404   5.682
  137DOPC   C4B  912  12.369   3.674   6.072
  138DOPC   NC3  913  15.159  15.884   4.192
  138DOPC   PO4  914  15.619  15.854   4.452
  138DOPC   GL1  915  16.019  15.944   4.612
  138DOPC   GL2  916  16.279  15.734   4.572
  138DOPC   C1A  917  16.389  16.104   4.952
  138DOPC   D2A  918  16.769  16.424   4.882
  138DOPC   C3A  919  16.709  16.874   4.862
  138DOPC   C4A  920  16.359  17.164   4.772
  138DOPC   C1B  921  16.469  15.294   4.692
  138DOPC   D2B  922  16.789  15.004   4.852
  138DOPC   C3B  923  16.779  14.824   5.252
  138DOPC   C4B  924  16.809  14.904   5.612
  139DOPC   NC3  925   2.869  11.444   7.822
  139DOPC   PO4  926   2.849  11.754   7.482
  139DOPC   GL1  927   2.949  11.524   7.142
  139DOPC   GL2  928   3.209  11.184   7.112
  139DOPC   C1A  929   2.879  11.484   6.692
  139DOPC   D2A  930   3.249  11.414   6.372
  139DOPC   C3A  931   3.329  11.254   6.012
  139DOPC   C4A  932   3.469  11.174   5.652
  139DOPC   C1B  933   3.069  11.014   6.702
  139DOPC   D2B  934   2.959  10.904   6.252
  139DOPC   C3B  935   3.299  10.804   6.042
  139DOPC   C4B  936   3.529  10.644   5.742
  140DOPC   NC3  937  13.219  17.004   8.732
  140DOPC   PO4  938  13.629  16.804   8.622
  140DOPC   GL1  939  13.379  16.834   8.192
  140DOPC   GL2  940  13.079  16.954   8.252
  140DOPC   C1A  941  13.479  16.694   7.782
  140DOPC   D2A  942  13.539  16.544   7.362
  140DOPC   C3A  943  13.109  16.384   7.112
  140DOPC   C4A  944  12.839  16.084   6.902
  140DOPC   C1B  945  12.969  16.874   7.862
  140DOPC   D2B  946  13.019  16.714   7.472
  140DOPC   C3B  947  13.179  16.904   7.042
  140DOPC   C4B  948  13.249  16.844   6.582
  141DOPC   NC3  949   9.889  23.831   8.042
  141DOPC   PO4  950  10.389  23.751   8.062
  141DOPC   GL1  951  10.639  23.571   7.662
  141DOPC   GL2  952  10.969  23.741   7.582
  141DOPC   C1A  953  10.499  23.551   7.242
  141DOPC   D2A  954  10.589  23.641   6.782
  141DOPC   C3A  955  10.369  23.721   6.502
  141DOPC   C4A  956   9.999  23.441   6.372
  141DOPC   C1B  957  10.989  23.631   7.192
  141DOPC   D2B  958  11.339  23.801   6.992
  141DOPC   C3B  959  11.259  24.041   6.542
  141DOPC   C4B  960  11.249  24.011   6.152
  142DOPC   NC3  961  17.469  17.094   7.502
  142DOPC   PO4  962  18.019  17.014   7.432
  142DOPC   GL1  963  18.139  16.914   7.002
  142DOPC   GL2  964  18.409  17.014   6.962
  142DOPC   C1A  965  18.209  16.574   6.732
  142DOPC   D2A  966  18.199  16.544   6.282
  142DOPC   C3A  967  18.159  16.084   6.062
  142DOPC   C4A  968  17.899  15.824   5.812
  142DOPC   C1B  969  18.759  17.084   6.672
  142DOPC   D2B  970  18.899  17.474   6.502
  142DOPC   C3B  971  18.719  17.864   6.482
  142DOPC   C4B  972  18.379  18.014   6.282
  143DOPC   NC3  973  24.139  21.344   7.622
  143DOPC   PO4  974  23.829  21.411   7.372
  143DOPC   GL1  975  23.679  21.571   6.972
  143DOPC   GL2  976  23.469  21.491   6.872
  143DOPC   C1A  977  23.689  21.931   6.702
  143DOPC   D2A  978  23.419  22.071   6.322
  143DOPC   C3A  979  23.159  21.691   6.152
  143DOPC   C4A  980  23.049  21.274   6.192
  143DOPC   C1B  981  23.529  21.531   6.442
  143DOPC   D2B  982  23.599  21.601   5.982
  143DOPC   C3B  983  23.309  21.431   5.692
  143DOPC   C4B  984  22.999  21.174   5.722
  144DOPC   NC3  985  18.789  19.534   7.622
  144DOPC   PO4  986  18.569  19.824   7.382
  144DOPC   GL1  987  18.829  20.044   7.092
  144DOPC   GL2  988  18.689  20.404   6.932
  144DOPC   C1A  989  19.069  20.124   6.752
  144DOPC   D2A  990  19.319  20.114   6.412
  144DOPC   C3A  991  19.679  20.284   6.292
  144DOPC   C4A  992  19.559  20.684   5.982
  144DOPC   C1B  993  18.379  20.024   6.762
  144DOPC   D2B  994  18.139  19.944   6.472
  144DOPC   C3B  995  18.299  20.034   6.032
  144DOPC   C4B  996  18.379  20.174   5.672
  145DOPC   NC3  997   6.489  25.571  11.412
  145DOPC   PO4  998   6.349  25.701  11.882
  145DOPC   GL1  999   6.139  25.461  12.222
  145DOPC   GL2 1000   6.379  25.111  12.412
  145DOPC   C1A 1001   6.079  25.391  12.672
  145DOPC   D2A 1002   6.119  25.231  13.142
  145DOPC   C3A 1003   6.169  25.551  13.422
  145DOPC   C4A 1004   6.359  25.871  13.442
  145DOPC   C1B 1005   6.479  24.991  12.842
  145DOPC   D2B 1006   6.639  24.921  13.182
  145DOPC   C3B 1007   6.349  25.071  13.542
  145DOPC   C4B 1008   5.979  25.221  13.702
  146DOPC   NC3 1009  21.069  22.401   7.882
  146DOPC   PO4 1010  21.379  22.511   7.732
  146DOPC   GL1 1011  21.519  22.491   7.302
  146DOPC   GL2 1012  21.769  22.301   7.272
  146DOPC   C1A 1013  21.589  22.721   7.002
  146DOPC   D2A 1014  21.269  22.601   6.672
  146DOPC   C3A 1015  21.279  22.611   6.272
  146DOPC   C4A 1016  21.319  22.831   5.932
  146DOPC   C1B 1017  21.679  22.261   6.862
  146DOPC   D2B 1018  21.399  22.141   6.472
  146DOPC   C3B 1019  21.489  22.051   6.052
  146DOPC   C4B 1020  21.349  22.351   5.702
  147DOPC   NC3 1021   8.989  13.824   8.762
  147DOPC   PO4 1022   9.069  14.284   8.802
  147DOPC   GL1 1023   9.269  14.474   8.402
  147DOPC   GL2 1024   9.349  14.804   8.352
  147DOPC   C1A 1025   9.369  14.514   7.952
  147DOPC   D2A 1026   9.539  14.754   7.532
  147DOPC   C3A 1027   9.909  14.804   7.572
  147DOPC   C4A 1028  10.169  15.064   7.282
  147DOPC   C1B 1029   9.529  15.004   8.012
  147DOPC   D2B 1030   9.929  15.204   8.052
  147DOPC   C3B 1031  10.369  15.084   8.152
  147DOPC   C4B 1032  10.769  15.104   8.282
  148DOPC   NC3 1033  24.249   5.054   6.942
  148DOPC   PO4 1034  23.819   4.744   6.912
  148DOPC   GL1 1035  24.169   4.864   6.522
  148DOPC   GL2 1036  23.979   5.094   6.392
  148DOPC   C1A 1037  24.359   4.574   6.162
  148DOPC   D2A 1038  24.279   4.224   5.942
  148DOPC   C3A 1039  24.039   4.114   5.622
  148DOPC   C4A 1040  23.709   4.054   5.362
  148DOPC   C1B 1041  24.029   5.004   5.902
  148DOPC   D2B 1042  24.139   5.054   5.572
  148DOPC   C3B 1043  23.819   5.334   5.582
  148DOPC   C4B 1044  23.489   5.514   5.682
  149DOPC   NC3 1045  21.629   3.524   7.302
  149DOPC   PO4 1046  21.769   3.014   7.532
  149DOPC   GL1 1047  21.779   3.104   7.032
  149DOPC   GL2 1048  21.619   3.284   6.872
  149DOPC   C1A 1049  21.969   2.924   6.732
  149DOPC   D2A 1050  22.349   3.144   6.532
  149DOPC   C3A 1051  22.759   3.324   6.552
  149DOPC   C4A 1052  22.549   3.874   6.362
  149DOPC   C1B 1053  21.789   3.334   6.462
  149DOPC   D2B 1054  21.619   3.594   6.252
  149DOPC   C3B 1055  21.479   3.544   5.822
  149DOPC   C4B 1056  21.179   3.514   5.472
  150DOPC   NC3 1057  15.189   6.374   8.472
  150DOPC   PO4 1058  14.999   6.764   8.322
  150DOPC   GL1 1059  15.139   6.814   7.842
  150DOPC   GL2 1060  14.819   6.934   7.742
  150DOPC   C1A 1061  15.249   6.834   7.392
  150DOPC   D2A 1062  14.949   6.854   7.072
  150DOPC   C3A 1063  14.739   7.294   7.202
  150DOPC   C4A 1064  14.759   7.524   7.612
  150DOPC   C1B 1065  14.709   6.634   7.432
  150DOPC   D2B 1066  14.899   6.364   7.312
  150DOPC   C3B 1067  14.869   6.294   6.852
  150DOPC   C4B 1068  14.639   6.434   6.542
  151DOPC   NC3 1069   0.909  11.054   7.532
  151DOPC   PO4 1070   1.079  11.484   7.372
  151DOPC   GL1 1071   0.829  11.374   7.122
  151DOPC   GL2 1072   0.819  11.044   7.042
  151DOPC   C1A 1073   0.879  11.404   6.702
  151DOPC   D2A 1074   1.089  11.274   6.312
  151DOPC   C3A 1075   1.369  11.654   6.152
  151DOPC   C4A 1076   1.179  12.094   6.172
  151DOPC   C1B 1077   0.719  10.834   6.642
  151DOPC   D2B 1078   0.879  10.734   6.302
  151DOPC   C3B 1079   0.559  10.594   5.982
  151DOPC   C4B 1080   0.139  10.554   5.992
  152DOPC   NC3 1081   3.199  23.101   3.562
  152DOPC   PO4 1082   3.169  22.791   3.932
  152DOPC   GL1 1083   3.119  22.511   4.352
  152DOPC   GL2 1084   2.809  22.501   4.432
  152DOPC   C1A 1085   3.039  22.251   4.792
  152DOPC   D2A 1086   2.709  22.281   5.132
  152DOPC   C3A 1087   2.739  22.271   5.662
  152DOPC   C4A 1088   2.569  21.971   5.862
  152DOPC   C1B 1089   2.439  22.511   4.812
  152DOPC   D2B 1090   2.159  22.471   5.052
  152DOPC   C3B 1091   2.329  22.601   5.462
  152DOPC   C4B 1092   2.629  22.871   5.792
  153DOPC   NC3 1093  20.509   9.574   3.662
  153DOPC   PO4 1094  20.559   9.964   3.732
  153DOPC   GL1 1095  20.469  10.104   4.232
  153DOPC   GL2 1096  20.429  10.514   4.262
  153DOPC   C1A 1097  20.789  10.184   4.492
  153DOPC   D2A 1098  20.829  10.024   4.912
  153DOPC   C3A 1099  20.949   9.664   5.032
  153DOPC   C4A 1100  21.269   9.474   5.002
  153DOPC   C1B 1101  20.279  10.364   4.692
  153DOPC   D2B 1102  20.269   9.994   4.902
  153DOPC   C3B 1103  20.559  10.054   5.282
  153DOPC   C4B 1104  20.869  10.284   5.412
  154DOPC   NC3 1105   6.629  16.004   8.012
  154DOPC   PO4 1106   6.949  16.384   7.922
  154DOPC   GL1 1107   7.029  16.424   7.552
  154DOPC   GL2 1108   7.229  16.174   7.382
  154DOPC   C1A 1109   6.729  16.244   7.282
  154DOPC   D2A 1110   6.499  16.614   6.912
  154DOPC   C3A 1111   6.439  16.504   6.502
  154DOPC   C4A 1112   6.579  16.504   5.992
  154DOPC   C1B 1113   7.149  15.794   7.072
  154DOPC   D2B 1114   7.069  15.374   6.832
  154DOPC   C3B 1115   7.129  15.504   6.372
  154DOPC   C4B 1116   6.849  15.464   5.992
  155DOPC   NC3 1117  22.449  25.061   7.312
  155DOPC   PO4 1118  22.109  25.111   7.682
  155DOPC   GL1 1119  21.889  24.901   7.352
  155DOPC   GL2 1120  22.049  24.541   7.292
  155DOPC   C1A 1121  21.539  24.531   7.142
  155DOPC   D2A 1122  21.089  24.511   7.062
  155DOPC   C3A 1123  21.069  24.471   6.682
  155DOPC   C4A 1124  20.919  24.491   6.272
  155DOPC   C1B 1125  21.849  24.171   7.092
  155DOPC   D2B 1126  21.389  24.041   7.062
  155DOPC   C3B 1127  21.229  23.981   6.612
  155DOPC   C4B 1128  21.059  23.961   6.182
  156DOPC   NC3 1129  18.179   4.424   8.142
  156DOPC   PO4 1130  18.049   4.804   7.842
  156DOPC   GL1 1131  18.149   4.744   7.382
  156DOPC   GL2 1132  18.019   5.064   7.272
  156DOPC   C1A 1133  18.039   4.654   6.922
  156DOPC   D2A 1134  17.909   4.394   6.582
  156DOPC   C3A 1135  17.459   4.264   6.612
  156DOPC   C4A 1136  17.089   3.874   6.882
  156DOPC   C1B 1137  18.159   5.194   6.872
  156DOPC   D2B 1138  18.349   5.474   6.622
  156DOPC   C3B 1139  18.479   5.824   6.712
  156DOPC   C4B 1140  18.989   6.064   6.722
  157DOPC   NC3 1141   6.059   2.574   4.102
  157DOPC   PO4 1142   6.439   2.354   3.942
  157DOPC   GL1 1143   6.829   2.164   4.212
  157DOPC   GL2 1144   7.139   1.994   4.102
  157DOPC   C1A 1145   6.879   2.244   4.622
  157DOPC   D2A 1146   6.919   2.114   5.042
  157DOPC   C3A 1147   6.989   2.264   5.472
  157DOPC   C4A 1148   7.009   2.214   5.872
  157DOPC   C1B 1149   7.089   1.804   4.532
  157DOPC   D2B 1150   6.869   1.584   4.852
  157DOPC   C3B 1151   6.869   1.244   5.052
  157DOPC   C4B 1152   7.059   1.034   5.512
  158DOPC   NC3 1153   8.749   6.354   7.622
  158DOPC   PO4 1154   9.219   6.544   7.652
  158DOPC   GL1 1155   9.029   6.634   7.302
  158DOPC   GL2 1156   8.999   6.424   7.122
  158DOPC   C1A 1157   9.249   6.884   7.062
  158DOPC   D2A 1158   9.639   7.124   7.082
  158DOPC   C3A 1159   9.879   7.234   6.662
  158DOPC   C4A 1160  10.179   7.204   6.352
  158DOPC   C1B 1161   9.019   6.644   6.722
  158DOPC   D2B 1162   8.989   6.364   6.262
  158DOPC   C3B 1163   9.389   6.354   6.082
  158DOPC   C4B 1164   9.749   6.284   6.152
  159DOPC   NC3 1165  24.339  11.564   7.792
  159DOPC   PO4 1166  24.739  11.504   7.742
  159DOPC   GL1 1167  24.789  11.624   7.332
  159DOPC   GL2 1168  24.469  11.764   7.252
  159DOPC   C1A 1169  24.889  11.764   6.872
  159DOPC   D2A 1170  25.219  11.904   6.542
  159DOPC   C3A 1171  25.479  12.084   6.142
  159DOPC   C4A 1172  25.806  12.074   5.722
  159DOPC   C1B 1173  24.569  12.074   7.102
  159DOPC   D2B 1174  24.879  12.424   7.102
  159DOPC   C3B 1175  24.749  12.714   7.122
  159DOPC   C4B 1176  24.509  12.984   6.892
  160DOPC   NC3 1177  13.679  14.274  10.602
  160DOPC   PO4 1178  13.809  14.614  10.562
  160DOPC   GL1 1179  13.789  14.884  10.982
  160DOPC   GL2 1180  13.669  14.534  11.062
  160DOPC   C1A 1181  14.009  14.764  11.412
  160DOPC   D2A 1182  14.109  14.674  11.772
  160DOPC   C3A 1183  14.209  15.124  11.962
  160DOPC   C4A 1184  14.239  15.224  12.412
  160DOPC   C1B 1185  13.569  14.284  11.332
  160DOPC   D2B 1186  13.199  14.164  11.612
  160DOPC   C3B 1187  12.949  13.824  11.552
  160DOPC   C4B 1188  12.609  13.714  11.762
  161DOPC   NC3 1189   9.229  10.744   3.862
  161DOPC   PO4 1190   8.819  10.784   3.752
  161DOPC   GL1 1191   8.509  10.994   4.082
  161DOPC   GL2 1192   8.609  10.944   4.412
  161DOPC   C1A 1193   8.139  11.174   4.342
  161DOPC   D2A 1194   7.769  11.394   4.582
  161DOPC   C3A 1195   7.959  11.654   4.892
  161DOPC   C4A 1196   7.819  11.644   5.352
  161DOPC   C1B 1197   8.289  11.134   4.772
  161DOPC   D2B 1198   8.069  11.164   5.202
  161DOPC   C3B 1199   7.669  11.214   5.412
  161DOPC   C4B 1200   7.239  11.124   5.312
  162DOPC   NC3 1201  17.769  23.071   3.362
  162DOPC   PO4 1202  17.989  22.881   3.792
  162DOPC   GL1 1203  17.779  23.071   4.162
  162DOPC   GL2 1204  17.519  22.951   4.162
  162DOPC   C1A 1205  17.579  23.201   4.622
  162DOPC   D2A 1206  17.149  23.311   4.872
  162DOPC   C3A 1207  16.909  23.511   4.572
  162DOPC   C4A 1208  16.519  23.531   4.552
  162DOPC   C1B 1209  17.339  22.521   4.252
  162DOPC   D2B 1210  17.069  22.321   4.572
  162DOPC   C3B 1211  16.619  22.041   4.622
  162DOPC   C4B 1212  16.279  21.751   4.682
  163DOPC   NC3 1213  13.109   2.614   3.822
  163DOPC   PO4 1214  13.339   2.464   4.202
  163DOPC   GL1 1215  13.359   2.284   4.662
  163DOPC   GL2 1216  13.629   2.314   4.712
  163DOPC   C1A 1217  13.099   2.254   4.992
  163DOPC   D2A 1218  13.109   2.084   5.522
  163DOPC   C3A 1219  12.939   2.174   5.932
  163DOPC   C4A 1220  12.829   1.904   6.302
  163DOPC   C1B 1221  13.829   2.344   5.132
  163DOPC   D2B 1222  13.889   2.284   5.502
  163DOPC   C3B 1223  13.989   2.624   5.852
  163DOPC   C4B 1224  14.119   2.944   6.032
  164DOPC   NC3 1225   7.949   7.614   8.062
  164DOPC   PO4 1226   7.809   7.304   7.752
  164DOPC   GL1 1227   7.819   7.204   7.322
  164DOPC   GL2 1228   7.999   6.914   7.382
  164DOPC   C1A 1229   8.009   7.264   6.852
  164DOPC   D2A 1230   8.259   7.174   6.522
  164DOPC   C3A 1231   8.159   7.354   6.112
  164DOPC   C4A 1232   7.939   7.404   5.812
  164DOPC   C1B 1233   8.169   6.634   7.042
  164DOPC   D2B 1234   8.519   6.394   7.132
  164DOPC   C3B 1235   8.599   6.184   6.802
  164DOPC   C4B 1236   8.969   6.084   6.662
  165DOPC   NC3 1237  21.459   0.294   4.132
  165DOPC   PO4 1238  21.479   0.714   3.942
  165DOPC   GL1 1239  21.419   0.864   4.442
  165DOPC   GL2 1240  21.379   0.584   4.562
  165DOPC   C1A 1241  21.049   1.034   4.552
  165DOPC   D2A 1242  20.929   1.074   5.012
  165DOPC   C3A 1243  21.289   1.164   5.252
  165DOPC   C4A 1244  21.429   1.054   5.612
  165DOPC   C1B 1245  20.929   0.494   4.732
  165DOPC   D2B 1246  20.519   0.784   4.932
  165DOPC   C3B 1247  20.309   0.864   5.292
  165DOPC   C4B 1248  20.199   0.814   5.612
  166DOPC   NC3 1249  21.199   1.714   7.552
  166DOPC   PO4 1250  20.799   1.914   7.562
  166DOPC   GL1 1251  20.749   1.734   7.262
  166DOPC   GL2 1252  20.519   1.524   7.292
  166DOPC   C1A 1253  20.879   1.594   6.862
  166DOPC   D2A 1254  20.949   1.274   6.552
  166DOPC   C3A 1255  20.829   1.354   6.252
  166DOPC   C4A 1256  20.589   1.544   5.952
  166DOPC   C1B 1257  20.579   1.174   7.082
  166DOPC   D2B 1258  20.859   0.904   6.882
  166DOPC   C3B 1259  20.789   0.864   6.392
  166DOPC   C4B 1260  20.619   0.884   5.942
  167DOPC   NC3 1261  12.859  14.114   5.332
  167DOPC   PO4 1262  13.239  14.474   5.342
  167DOPC   GL1 1263  13.529  14.574   5.762
  167DOPC   GL2 1264  13.459  14.334   6.072
  167DOPC   C1A 1265  13.709  14.814   6.142
  167DOPC   D2A 1266  13.989  14.994   6.372
  167DOPC   C3A 1267  13.699  14.944   6.822
  167DOPC   C4A 1268  13.359  14.764   7.072
  167DOPC   C1B 1269  13.579  14.384   6.502
  167DOPC   D2B 1270  13.559  14.294   6.892
  167DOPC   C3B 1271  13.869  14.414   7.122
  167DOPC   C4B 1272  13.809  14.834   7.292
  168DOPC   NC3 1273   2.339  12.044   3.752
  168DOPC   PO4 1274   1.969  11.874   3.752
  168DOPC   GL1 1275   1.769  11.884   4.122
  168DOPC   GL2 1276   1.819  11.644   4.322
  168DOPC   C1A 1277   1.579  12.054   4.512
  168DOPC   D2A 1278   1.459  12.034   4.972
  168DOPC   C3A 1279   1.639  11.854   5.262
  168DOPC   C4A 1280   1.889  11.574   5.442
  168DOPC   C1B 1281   1.899  11.624   4.832
  168DOPC   D2B 1282   2.179  11.764   5.102
  168DOPC   C3B 1283   2.339  11.874   5.502
  168DOPC   C4B 1284   2.589  11.854   5.822
  169DOPC   NC3 1285  18.009  17.714   3.902
  169DOPC   PO4 1286  17.629  17.984   3.752
  169DOPC   GL1 1287  17.829  18.034   4.202
  169DOPC   GL2 1288  17.909  17.754   4.372
  169DOPC   C1A 1289  18.029  18.294   4.452
  169DOPC   D2A 1290  18.319  18.454   4.812
  169DOPC   C3A 1291  18.309  18.554   5.282
  169DOPC   C4A 1292  18.399  18.714   5.672
  169DOPC   C1B 1293  17.529  17.964   4.602
  169DOPC   D2B 1294  17.329  18.014   4.962
  169DOPC   C3B 1295  17.499  17.844   5.412
  169DOPC   C4B 1296  17.609  17.694   5.772
  170DOPC   NC3 1297   3.459   4.264   7.282
  170DOPC   PO4 1298   3.739   4.004   7.132
  170DOPC   GL1 1299   3.969   3.774   6.782
  170DOPC   GL2 1300   4.039   3.394   6.762
  170DOPC   C1A 1301   3.939   3.644   6.342
  170DOPC   D2A 1302   4.019   3.454   5.922
  170DOPC   C3A 1303   4.179   3.044   6.002
  170DOPC   C4A 1304   4.149   2.664   5.852
  170DOPC   C1B 1305   4.049   2.964   6.622
  170DOPC   D2B 1306   4.499   2.924   6.342
  170DOPC   C3B 1307   4.569   2.474   6.262
  170DOPC   C4B 1308   4.549   2.084   5.932
  171DOPC   NC3 1309  19.189  22.821   7.562
  171DOPC   PO4 1310  18.929  23.091   7.432
  171DOPC   GL1 1311  18.839  23.191   6.962
  171DOPC   GL2 1312  18.499  23.301   6.812
  171DOPC   C1A 1313  18.959  23.471   6.602
  171DOPC   D2A 1314  19.269  23.691   6.362
  171DOPC   C3A 1315  19.349  23.721   5.912
  171DOPC   C4A 1316  19.409  23.761   5.462
  171DOPC   C1B 1317  18.539  23.541   6.312
  171DOPC   D2B 1318  18.779  23.891   6.112
  171DOPC   C3B 1319  18.829  23.961   5.642
  171DOPC   C4B 1320  19.209  24.221   5.592
  172DOPC   NC3 1321  21.059  21.194   7.432
  172DOPC   PO4 1322  20.879  20.804   7.522
  172DOPC   GL1 1323  20.709  20.934   7.122
  172DOPC   GL2 1324  20.429  21.084   7.132
  172DOPC   C1A 1325  20.659  20.744   6.752
  172DOPC   D2A 1326  20.789  20.874   6.362
  172DOPC   C3A 1327  20.479  21.184   6.242
  172DOPC   C4A 1328  20.489  21.741   6.242
  172DOPC   C1B 1329  20.219  21.054   6.732
  172DOPC   D2B 1330  19.999  21.184   6.372
  172DOPC   C3B 1331  20.109  21.371   6.032
  172DOPC   C4B 1332  20.269  21.611   5.752
  173DOPC   NC3 1333  26.516   6.914  11.262
  173DOPC   PO4 1334  26.146   6.724  11.262
  173DOPC   GL1 1335  25.836   6.864  11.592
  173DOPC   GL2 1336  25.569   6.654  11.732
  173DOPC   C1A 1337  25.816   7.234  11.852
  173DOPC   D2A 1338  25.619   7.194  12.212
  173DOPC   C3A 1339  25.219   7.494  12.232
  173DOPC   C4A 1340  24.839   7.484  12.462
  173DOPC   C1B 1341  25.499   6.704  12.132
  173DOPC   D2B 1342  25.149   6.944  12.322
  173DOPC   C3B 1343  25.219   7.084  12.722
  173DOPC   C4B 1344  25.249   7.044  13.182
  174DOPC   NC3 1345   2.359  10.204   7.332
  174DOPC   PO4 1346   2.779  10.504   7.412
  174DOPC   GL1 1347   2.839  10.864   7.192
  174DOPC   GL2 1348   3.159  10.664   7.052
  174DOPC   C1A 1349   2.579  11.184   6.892
  174DOPC   D2A 1350   2.589  11.204   6.482
  174DOPC   C3A 1351   2.759  11.414   6.122
  174DOPC   C4A 1352   2.879  11.454   5.632
  174DOPC   C1B 1353   3.259  10.254   6.742
  174DOPC   D2B 1354   3.479   9.954   6.422
  174DOPC   C3B 1355   3.199   9.694   6.172
  174DOPC   C4B 1356   3.289   9.344   5.962
  175DOPC   NC3 1357   3.509   8.114   2.912
  175DOPC   PO4 1358   3.739   8.524   2.832
  175DOPC   GL1 1359   3.889   8.694   3.272
  175DOPC   GL2 1360   4.209   8.894   3.342
  175DOPC   C1A 1361   3.659   8.454   3.632
  175DOPC   D2A 1362   3.399   8.284   3.692
  175DOPC   C3A 1363   3.049   8.234   3.442
  175DOPC   C4A 1364   2.859   8.244   3.102
  175DOPC   C1B 1365   3.889   9.084   3.592
  175DOPC   D2B 1366   3.849   9.014   3.992
  175DOPC   C3B 1367   4.029   8.584   4.052
  175DOPC   C4B 1368   4.259   8.404   3.812
  176DOPC   NC3 1369  14.639  16.154   8.032
  176DOPC   PO4 1370  14.979  16.184   7.832
  176DOPC   GL1 1371  15.069  16.264   7.502
  176DOPC   GL2 1372  15.079  15.924   7.412
  176DOPC   C1A 1373  14.769  16.174   7.112
  176DOPC   D2A 1374  14.439  16.124   6.792
  176DOPC   C3A 1375  14.429  15.744   6.732
  176DOPC   C4A 1376  14.069  15.414   6.662
  176DOPC   C1B 1377  14.899  15.594   7.102
  176DOPC   D2B 1378  14.649  15.274   7.062
  176DOPC   C3B 1379  14.399  15.044   6.842
  176DOPC   C4B 1380  14.229  14.584   6.852
  177DOPC   NC3 1381   5.279   5.014   7.502
  177DOPC   PO4 1382   5.419   5.194   7.142
  177DOPC   GL1 1383   5.469   5.324   6.742
  177DOPC   GL2 1384   5.499   5.714   6.782
  177DOPC   C1A 1385   5.559   5.224   6.312
  177DOPC   D2A 1386   5.709   5.024   6.002
  177DOPC   C3A 1387   5.919   5.264   5.702
  177DOPC   C4A 1388   5.939   5.414   5.222
  177DOPC   C1B 1389   5.459   5.724   6.312
  177DOPC   D2B 1390   5.139   5.734   5.992
  177DOPC   C3B 1391   5.149   5.614   5.592
  177DOPC   C4B 1392   4.909   5.734   5.262
  178DOPC   NC3 1393  13.629  23.321   8.242
  178DOPC   PO4 1394  13.359  23.551   7.952
  178DOPC   GL1 1395  13.569  23.131   7.782
  178DOPC   GL2 1396  13.359  22.781   7.752
  178DOPC   C1A 1397  13.849  22.911   7.412
  178DOPC   D2A 1398  14.219  22.791   7.172
  178DOPC   C3A 1399  14.199  22.751   6.722
  178DOPC   C4A 1400  13.909  22.701   6.362
  178DOPC   C1B 1401  13.309  23.061   7.302
  178DOPC   D2B 1402  13.159  23.161   6.942
  178DOPC   C3B 1403  12.919  23.471   6.722
  178DOPC   C4B 1404  13.029  23.801   6.382
  179DOPC   NC3 1405  17.029  12.514   4.042
  179DOPC   PO4 1406  17.349  12.574   3.782
  179DOPC   GL1 1407  17.509  12.364   4.282
  179DOPC   GL2 1408  17.599  12.014   4.332
  179DOPC   C1A 1409  17.519  12.494   4.692
  179DOPC   D2A 1410  17.469  12.504   5.182
  179DOPC   C3A 1411  17.399  12.854   5.502
  179DOPC   C4A 1412  17.549  12.874   5.932
  179DOPC   C1B 1413  17.599  11.994   4.752
  179DOPC   D2B 1414  17.839  11.994   5.112
  179DOPC   C3B 1415  17.729  11.854   5.422
  179DOPC   C4B 1416  17.899  11.904   5.792
  180DOPC   NC3 1417  25.359   8.224   6.772
  180DOPC   PO4 1418  25.399   8.594   6.772
  180DOPC   GL1 1419  25.179   8.784   6.462
  180DOPC   GL2 1420  25.259   9.174   6.372
  180DOPC   C1A 1421  25.039   8.734   6.052
  180DOPC   D2A 1422  25.099   8.774   5.602
  180DOPC   C3A 1423  25.059   8.414   5.352
  180DOPC   C4A 1424  25.339   8.174   5.092
  180DOPC   C1B 1425  25.289   9.204   5.952
  180DOPC   D2B 1426  25.479   9.104   5.502
  180DOPC   C3B 1427  25.119   8.984   5.112
  180DOPC   C4B 1428  24.709   8.894   5.052
  181DOPC   NC3 1429  25.519   5.484   2.722
  181DOPC   PO4 1430  25.439   5.944   2.802
  181DOPC   GL1 1431  25.509   5.924   3.232
  181DOPC   GL2 1432  25.916   5.764   3.382
  181DOPC   C1A 1433  25.429   5.624   3.622
  181DOPC   D2A 1434  25.589   5.454   4.072
  181DOPC   C3A 1435  25.469   5.714   4.452
  181DOPC   C4A 1436  25.706   5.764   4.852
  181DOPC   C1B 1437  25.696   6.224   3.562
  181DOPC   D2B 1438  25.309   6.414   3.582
  181DOPC   C3B 1439  25.309   6.614   4.022
  181DOPC   C4B 1440  25.469   6.744   4.412
  182DOPC   NC3 1441   0.379  19.344   3.592
  182DOPC   PO4 1442   0.249  19.804   3.732
  182DOPC   GL1 1443   0.309  19.894   4.102
  182DOPC   GL2 1444   0.279  20.264   4.172
  182DOPC   C1A 1445   0.389  19.824   4.602
  182DOPC   D2A 1446   0.279  19.894   4.982
  182DOPC   C3A 1447   0.399  19.584   5.262
  182DOPC   C4A 1448   0.419  19.604   5.752
  182DOPC   C1B 1449   0.169  20.414   4.562
  182DOPC   D2B 1450  -0.109  20.754   4.772
  182DOPC   C3B 1451  -0.189  20.784   5.192
  182DOPC   C4B 1452  -0.559  20.734   5.522
  183DOPC   NC3 1453   3.789   5.814   3.062
  183DOPC   PO4 1454   3.729   5.334   2.982
  183DOPC   GL1 1455   3.839   5.414   3.392
  183DOPC   GL2 1456   3.879   5.754   3.502
  183DOPC   C1A 1457   3.639   5.294   3.842
  183DOPC   D2A 1458   3.389   5.384   4.232
  183DOPC   C3A 1459   3.179   5.074   4.402
  183DOPC   C4A 1460   2.989   4.634   4.472
  183DOPC   C1B 1461   3.659   5.784   3.842
  183DOPC   D2B 1462   3.789   5.884   4.322
  183DOPC   C3B 1463   3.689   5.664   4.602
  183DOPC   C4B 1464   3.749   5.594   5.042
  184DOPC   NC3 1465  11.219  18.644   4.732
  184DOPC   PO4 1466  11.219  19.014   4.902
  184DOPC   GL1 1467  11.189  18.694   5.322
  184DOPC   GL2 1468  11.549  18.434   5.452
  184DOPC   C1A 1469  11.129  18.744   5.732
  184DOPC   D2A 1470  11.299  19.064   6.062
  184DOPC   C3A 1471  10.879  19.204   6.362
  184DOPC   C4A 1472  10.719  19.144   6.692
  184DOPC   C1B 1473  11.429  18.274   5.862
  184DOPC   D2B 1474  11.189  18.024   6.162
  184DOPC   C3B 1475  11.039  18.184   6.522
  184DOPC   C4B 1476  10.969  18.274   6.982
  185DOPC   NC3 1477   4.369   8.824   6.822
  185DOPC   PO4 1478   4.039   8.994   7.032
  185DOPC   GL1 1479   3.989   9.094   6.552
  185DOPC   GL2 1480   4.079   8.984   6.352
  185DOPC   C1A 1481   4.249   9.464   6.372
  185DOPC   D2A 1482   4.309   9.704   6.032
  185DOPC   C3A 1483   4.089   9.454   5.732
  185DOPC   C4A 1484   4.049   9.134   5.572
  185DOPC   C1B 1485   4.269   9.074   6.012
  185DOPC   D2B 1486   4.549   9.254   5.782
  185DOPC   C3B 1487   4.629   8.854   5.522
  185DOPC   C4B 1488   4.509   8.384   5.502
  186DOPC   NC3 1489   3.549   4.804   6.932
  186DOPC   PO4 1490   3.179   4.734   7.172
  186DOPC   GL1 1491   3.029   4.934   6.822
  186DOPC   GL2 1492   2.699   4.974   6.772
  186DOPC   C1A 1493   3.089   5.144   6.422
  186DOPC   D2A 1494   3.289   5.224   6.052
  186DOPC   C3A 1495   3.249   5.134   5.632
  186DOPC   C4A 1496   3.419   5.054   5.222
  186DOPC   C1B 1497   2.739   4.734   6.522
  186DOPC   D2B 1498   2.779   4.694   6.162
  186DOPC   C3B 1499   2.559   4.854   5.882
  186DOPC   C4B 1500   2.579   5.044   5.512
  187DOPC   NC3 1501   9.989   4.614   8.332
  187DOPC   PO4 1502   9.719   4.474   8.042
  187DOPC   GL1 1503   9.889   4.434   7.612
  187DOPC   GL2 1504   9.959   4.644   7.322
  187DOPC   C1A 1505   9.869   4.204   7.172
  187DOPC   D2A 1506   9.889   3.884   6.902
  187DOPC   C3A 1507  10.179   3.494   6.972
  187DOPC   C4A 1508  10.319   3.044   7.162
  187DOPC   C1B 1509   9.659   4.684   7.012
  187DOPC   D2B 1510   9.659   4.584   6.522
  187DOPC   C3B 1511   9.669   4.944   6.222
  187DOPC   C4B 1512   9.519   5.354   6.162
  188DOPC   NC3 1513  16.839   2.244   8.522
  188DOPC   PO4 1514  16.829   2.564   8.252
  188DOPC   GL1 1515  16.459   2.434   7.892
  188DOPC   GL2 1516  16.509   2.104   7.632
  188DOPC   C1A 1517  16.249   2.464   7.462
  188DOPC   D2A 1518  16.629   2.444   7.132
  188DOPC   C3A 1519  16.489   2.324   6.732
  188DOPC   C4A 1520  16.149   2.244   6.432
  188DOPC   C1B 1521  16.379   2.024   7.212
  188DOPC   D2B 1522  16.419   1.814   6.862
  188DOPC   C3B 1523  16.759   1.634   6.782
  188DOPC   C4B 1524  16.979   1.314   6.482
  189DOPC   NC3 1525   8.699   4.804  10.562
  189DOPC   PO4 1526   8.289   4.654  10.482
  189DOPC   GL1 1527   8.329   4.564  10.952
  189DOPC   GL2 1528   8.189   4.294  11.052
  189DOPC   C1A 1529   8.499   4.524  11.412
  189DOPC   D2A 1530   8.509   4.524  11.862
  189DOPC   C3A 1531   8.439   4.734  12.362
  189DOPC   C4A 1532   8.239   4.484  12.632
  189DOPC   C1B 1533   8.179   3.914  11.342
  189DOPC   D2B 1534   8.189   3.594  11.552
  189DOPC   C3B 1535   7.979   3.494  11.972
  189DOPC   C4B 1536   7.859   3.104  12.292
  190DOPC   NC3 1537  15.879   1.604   8.162
  190DOPC   PO4 1538  15.929   1.094   8.172
  190DOPC   GL1 1539  15.769   1.284   7.752
  190DOPC   GL2 1540  16.049   1.514   7.662
  190DOPC   C1A 1541  15.699   1.264   7.272
  190DOPC   D2A 1542  15.589   1.204   6.762
  190DOPC   C3A 1543  15.599   0.854   6.702
  190DOPC   C4A 1544  15.439   0.454   6.652
  190DOPC   C1B 1545  16.019   1.664   7.202
  190DOPC   D2B 1546  16.039   1.414   6.862
  190DOPC   C3B 1547  16.349   1.404   6.552
  190DOPC   C4B 1548  16.549   1.334   6.112
  191DOPC   NC3 1549   2.619   0.024  11.522
  191DOPC   PO4 1550   2.129   0.084  11.542
  191DOPC   GL1 1551   2.289   0.224  11.902
  191DOPC   GL2 1552   2.549   0.514  12.012
  191DOPC   C1A 1553   2.259   0.234  12.342
  191DOPC   D2A 1554   1.999   0.564  12.452
  191DOPC   C3A 1555   2.009   0.724  12.872
  191DOPC   C4A 1556   2.279   0.734  13.242
  191DOPC   C1B 1557   2.889   0.514  12.442
  191DOPC   D2B 1558   2.919   0.274  12.792
  191DOPC   C3B 1559   3.069   0.174  13.102
  191DOPC   C4B 1560   3.329  -0.146  13.482
  192DOPC   NC3 1561   3.009  10.394   3.322
  192DOPC   PO4 1562   2.549  10.354   3.482
  192DOPC   GL1 1563   2.629  10.344   3.942
  192DOPC   GL2 1564   2.399  10.584   3.932
  192DOPC   C1A 1565   2.929  10.254   4.282
  192DOPC   D2A 1566   3.039  10.434   4.732
  192DOPC   C3A 1567   3.429  10.284   4.962
  192DOPC   C4A 1568   3.849  10.454   5.062
  192DOPC   C1B 1569   2.429  10.474   4.392
  192DOPC   D2B 1570   2.589  10.384   4.752
  192DOPC   C3B 1571   2.739  10.524   5.192
  192DOPC   C4B 1572   3.129  10.764   5.172
  193DOPC   NC3 1573  26.236   0.944   3.732
  193DOPC   PO4 1574  25.756   1.194   3.742
  193DOPC   GL1 1575  25.589   1.134   4.112
  193DOPC   GL2 1576  25.249   1.114   4.102
  193DOPC   C1A 1577  25.736   1.164   4.532
  193DOPC   D2A 1578  25.676   1.184   5.012
  193DOPC   C3A 1579  25.866   1.454   5.322
  193DOPC   C4A 1580  25.976   1.534   5.872
  193DOPC   C1B 1581  25.259   1.124   4.582
  193DOPC   D2B 1582  25.119   1.164   4.972
  193DOPC   C3B 1583  25.329   1.444   5.212
  193DOPC   C4B 1584  25.319   1.794   5.282
  194DOPC   NC3 1585   2.779   5.494   2.922
  194DOPC   PO4 1586   2.449   5.664   3.352
  194DOPC   GL1 1587   2.549   5.804   3.842
  194DOPC   GL2 1588   2.899   5.894   4.072
  194DOPC   C1A 1589   2.489   6.094   4.182
  194DOPC   D2A 1590   2.609   6.254   4.602
  194DOPC   C3A 1591   2.679   6.744   4.652
  194DOPC   C4A 1592   2.669   7.104   4.762
  194DOPC   C1B 1593   3.199   5.834   4.482
  194DOPC   D2B 1594   3.479   6.134   4.712
  194DOPC   C3B 1595   3.949   6.234   4.772
  194DOPC   C4B 1596   3.799   6.604   4.922
  195DOPC   NC3 1597  20.019  19.704   7.422
  195DOPC   PO4 1598  19.839  20.084   7.332
  195DOPC   GL1 1599  19.889  20.044   6.882
  195DOPC   GL2 1600  19.579  20.104   6.852
  195DOPC   C1A 1601  20.139  20.034   6.442
  195DOPC   D2A 1602  20.319  20.164   5.952
  195DOPC   C3A 1603  20.119  20.464   5.912
  195DOPC   C4A 1604  20.069  20.824   6.002
  195DOPC   C1B 1605  19.819  20.554   6.702
  195DOPC   D2B 1606  19.649  20.854   6.512
  195DOPC   C3B 1607  19.649  21.244   6.812
  195DOPC   C4B 1608  19.499  21.711   6.852
  196DOPC   NC3 1609   5.469  19.714   7.722
  196DOPC   PO4 1610   5.329  19.344   7.852
  196DOPC   GL1 1611   5.669  19.194   7.672
  196DOPC   GL2 1612   6.049  19.274   7.802
  196DOPC   C1A 1613   5.749  18.964   7.372
  196DOPC   D2A 1614   5.879  19.024   6.932
  196DOPC   C3A 1615   6.249  18.664   6.772
  196DOPC   C4A 1616   6.499  18.224   6.642
  196DOPC   C1B 1617   5.969  19.404   7.332
  196DOPC   D2B 1618   6.159  19.454   7.042
  196DOPC   C3B 1619   6.209  19.734   6.692
  196DOPC   C4B 1620   5.929  19.904   6.452
  197DOPC   NC3 1621  10.169  20.814   8.702
  197DOPC   PO4 1622  10.139  21.134   8.422
  197DOPC   GL1 1623  10.159  21.014   8.022
  197DOPC   GL2 1624  10.439  21.264   7.912
  197DOPC   C1A 1625  10.329  20.754   7.612
  197DOPC   D2A 1626  10.759  20.644   7.332
  197DOPC   C3A 1627  10.709  20.534   6.892
  197DOPC   C4A 1628  10.349  20.414   6.582
  197DOPC   C1B 1629  10.249  21.254   7.592
  197DOPC   D2B 1630  10.129  21.034   7.242
  197DOPC   C3B 1631  10.309  20.614   7.162
  197DOPC   C4B 1632  10.489  20.214   7.182
  198DOPC   NC3 1633   6.959  10.174   3.952
  198DOPC   PO4 1634   6.859   9.854   4.222
  198DOPC   GL1 1635   6.719   9.524   4.502
  198DOPC   GL2 1636   6.679   9.354   4.192
  198DOPC   C1A 1637   6.659   9.344   4.922
  198DOPC   D2A 1638   6.759   9.604   5.322
  198DOPC   C3A 1639   6.989   9.434   5.522
  198DOPC   C4A 1640   7.109   9.004   5.642
  198DOPC   C1B 1641   6.839   8.984   4.452
  198DOPC   D2B 1642   6.969   8.884   4.862
  198DOPC   C3B 1643   6.819   9.024   5.222
  198DOPC   C4B 1644   6.389   9.174   5.372
  199DOPC   NC3 1645  25.159  21.991   7.642
  199DOPC   PO4 1646  24.989  21.601   7.542
  199DOPC   GL1 1647  24.989  21.771   7.122
  199DOPC   GL2 1648  24.659  21.801   6.982
  199DOPC   C1A 1649  25.059  22.071   6.802
  199DOPC   D2A 1650  25.139  22.241   6.362
  199DOPC   C3A 1651  24.909  22.641   6.242
  199DOPC   C4A 1652  24.589  22.791   5.902
  199DOPC   C1B 1653  24.829  21.641   6.582
  199DOPC   D2B 1654  24.649  21.761   6.232
  199DOPC   C3B 1655  24.399  21.801   6.072
  199DOPC   C4B 1656  24.069  21.791   5.752
  200DOPC   NC3 1657   1.859   9.284   7.152
  200DOPC   PO4 1658   2.349   9.324   7.102
  200DOPC   GL1 1659   2.379   9.084   6.752
  200DOPC   GL2 1660   2.759   8.884   6.652
  200DOPC   C1A 1661   2.459   9.024   6.262
  200DOPC   D2A 1662   2.319   8.954   5.812
  200DOPC   C3A 1663   2.539   8.934   5.442
  200DOPC   C4A 1664   2.589   8.524   5.212
  200DOPC   C1B 1665   2.959   8.884   6.302
  200DOPC   D2B 1666   3.279   8.844   5.942
  200DOPC   C3B 1667   3.109   8.834   5.482
  200DOPC   C4B 1668   2.979   9.014   5.112
  201DOPC   NC3 1669  20.089  23.621   7.642
  201DOPC   PO4 1670  20.399  24.081   7.652
  201DOPC   GL1 1671  20.549  24.191   7.392
  201DOPC   GL2 1672  20.849  24.271   7.422
  201DOPC   C1A 1673  20.539  24.631   7.182
  201DOPC   D2A 1674  20.269  25.011   7.052
  201DOPC   C3A 1675  20.429  25.261   6.652
  201DOPC   C4A 1676  20.749  25.321   6.372
  201DOPC   C1B 1677  20.709  24.191   6.892
  201DOPC   D2B 1678  20.579  24.121   6.452
  201DOPC   C3B 1679  20.679  24.161   5.992
  201DOPC   C4B 1680  21.069  24.171   5.732
  202DOPC   NC3 1681   3.999  11.574   7.382
  202DOPC   PO4 1682   4.409  11.404   7.232
  202DOPC   GL1 1683   4.429  11.624   6.962
  202DOPC   GL2 1684   4.449  11.984   7.032
  202DOPC   C1A 1685   4.489  11.534   6.582
  202DOPC   D2A 1686   4.809  11.394   6.282
  202DOPC   C3A 1687   5.049  11.694   6.082
  202DOPC   C4A 1688   5.159  11.974   5.802
  202DOPC   C1B 1689   4.419  12.384   6.682
  202DOPC   D2B 1690   4.539  12.534   6.382
  202DOPC   C3B 1691   4.889  12.294   6.112
  202DOPC   C4B 1692   5.229  12.144   6.342
  203DOPC   NC3 1693  12.609  23.901   8.562
  203DOPC   PO4 1694  12.269  23.701   8.122
  203DOPC   GL1 1695  12.029  23.531   7.782
  203DOPC   GL2 1696  11.639  23.641   7.852
  203DOPC   C1A 1697  12.139  23.391   7.402
  203DOPC   D2A 1698  12.199  23.351   7.062
  203DOPC   C3A 1699  11.869  23.391   6.622
  203DOPC   C4A 1700  11.619  23.661   6.372
  203DOPC   C1B 1701  11.369  23.941   7.602
  203DOPC   D2B 1702  11.059  24.121   7.232
  203DOPC   C3B 1703  10.639  24.041   7.382
  203DOPC   C4B 1704  10.189  24.211   7.382
  204DOPC   NC3 1705  19.279   6.554   7.842
  204DOPC   PO4 1706  19.629   6.274   7.712
  204DOPC   GL1 1707  19.419   6.374   7.382
  204DOPC   GL2 1708  19.469   6.654   7.162
  204DOPC   C1A 1709  19.049   6.244   7.152
  204DOPC   D2A 1710  18.639   6.154   7.112
  204DOPC   C3A 1711  18.259   5.844   7.232
  204DOPC   C4A 1712  18.189   5.544   7.332
  204DOPC   C1B 1713  19.469   6.714   6.732
  204DOPC   D2B 1714  19.369   6.604   6.222
  204DOPC   C3B 1715  18.949   6.314   6.212
  204DOPC   C4B 1716  18.549   6.264   6.522
  205DOPC   NC3 1717   9.269   9.634   8.472
  205DOPC   PO4 1718   8.829   9.844   8.482
  205DOPC   GL1 1719   9.139   9.884   8.062
  205DOPC   GL2 1720   9.479   9.834   7.962
  205DOPC   C1A 1721   9.209  10.104   7.682
  205DOPC   D2A 1722   9.269  10.234   7.282
  205DOPC   C3A 1723   9.439  10.534   7.112
  205DOPC   C4A 1724   9.469  10.654   6.652
  205DOPC   C1B 1725   9.619  10.294   7.812
  205DOPC   D2B 1726   9.499  10.794   7.672
  205DOPC   C3B 1727   9.229  10.874   7.372
  205DOPC   C4B 1728   9.139  10.884   6.942
  206DOPC   NC3 1729  18.779  15.314   7.592
  206DOPC   PO4 1730  19.039  15.624   7.332
  206DOPC   GL1 1731  18.739  15.654   7.012
  206DOPC   GL2 1732  18.869  15.594   6.722
  206DOPC   C1A 1733  18.539  15.984   6.712
  206DOPC   D2A 1734  18.129  16.044   6.572
  206DOPC   C3A 1735  17.879  15.714   6.432
  206DOPC   C4A 1736  17.979  15.374   6.232
  206DOPC   C1B 1737  18.989  15.424   6.232
  206DOPC   D2B 1738  18.979  15.064   5.942
  206DOPC   C3B 1739  18.619  15.114   5.662
  206DOPC   C4B 1740  18.439  15.144   5.082
  207DOPC   NC3 1741  20.669  10.704   7.212
  207DOPC   PO4 1742  20.699  11.134   7.272
  207DOPC   GL1 1743  20.779  11.014   6.872
  207DOPC   GL2 1744  20.499  10.824   6.762
  207DOPC   C1A 1745  20.779  11.204   6.412
  207DOPC   D2A 1746  20.599  11.014   6.062
  207DOPC   C3A 1747  20.409  11.104   5.722
  207DOPC   C4A 1748  20.329  11.214   5.212
  207DOPC   C1B 1749  20.229  10.874   6.502
  207DOPC   D2B 1750  20.019  11.214   6.342
  207DOPC   C3B 1751  20.159  11.444   5.992
  207DOPC   C4B 1752  20.059  11.584   5.562
  208DOPC   NC3 1753   0.529   1.284   7.452
  208DOPC   PO4 1754   0.769   1.654   7.412
  208DOPC   GL1 1755   0.619   1.414   6.982
  208DOPC   GL2 1756   0.699   1.544   6.602
  208DOPC   C1A 1757   0.359   1.234   6.812
  208DOPC   D2A 1758   0.329   0.744   6.892
  208DOPC   C3A 1759   0.059   0.474   6.782
  208DOPC   C4A 1760  -0.149   0.414   6.362
  208DOPC   C1B 1761   0.479   1.314   6.342
  208DOPC   D2B 1762   0.509   1.074   5.982
  208DOPC   C3B 1763   0.699   1.224   5.562
  208DOPC   C4B 1764   1.059   1.554   5.422
  209DOPC   NC3 1765   7.549   6.834   7.562
  209DOPC   PO4 1766   7.619   6.404   7.512
  209DOPC   GL1 1767   7.649   6.744   7.052
  209DOPC   GL2 1768   7.399   7.014   7.032
  209DOPC   C1A 1769   7.829   6.674   6.622
  209DOPC   D2A 1770   8.379   6.584   6.592
  209DOPC   C3A 1771   8.499   6.304   6.252
  209DOPC   C4A 1772   8.309   6.064   5.872
  209DOPC   C1B 1773   7.539   7.124   6.542
  209DOPC   D2B 1774   7.659   7.214   6.212
  209DOPC   C3B 1775   7.519   7.524   6.052
  209DOPC   C4B 1776   7.389   7.874   5.842
  210DOPC   NC3 1777   4.369  20.124   8.242
  210DOPC   PO4 1778   4.629  20.094   7.892
  210DOPC   GL1 1779   4.439  20.084   7.512
  210DOPC   GL2 1780   4.299  20.394   7.402
  210DOPC   C1A 1781   4.589  19.924   7.152
  210DOPC   D2A 1782   4.789  19.514   6.922
  210DOPC   C3A 1783   4.899  19.234   7.282
  210DOPC   C4A 1784   5.299  18.924   7.202
  210DOPC   C1B 1785   4.159  20.274   7.052
  210DOPC   D2B 1786   3.879  19.974   6.872
  210DOPC   C3B 1787   3.929  19.754   6.412
  210DOPC   C4B 1788   4.169  19.574   6.072
  211DOPC   NC3 1789   1.699   7.104   6.442
  211DOPC   PO4 1790   1.269   7.024   6.472
  211DOPC   GL1 1791   1.019   6.954   6.142
  211DOPC   GL2 1792   0.769   6.844   6.332
  211DOPC   C1A 1793   0.789   6.974   5.802
  211DOPC   D2A 1794   0.649   6.594   5.462
  211DOPC   C3A 1795   0.349   6.534   5.142
  211DOPC   C4A 1796   0.001   6.844   5.002
  211DOPC   C1B 1797   0.509   7.214   6.162
  211DOPC   D2B 1798   0.109   7.324   6.132
  211DOPC   C3B 1799   0.109   7.664   5.972
  211DOPC   C4B 1800  -0.139   7.974   5.852
  212DOPC   NC3 1801  24.199  25.461   7.812
  212DOPC   PO4 1802  24.059  25.721   7.522
  212DOPC   GL1 1803  24.149  25.401   7.282
  212DOPC   GL2 1804  23.899  25.201   7.112
  212DOPC   C1A 1805  24.359  25.331   6.862
  212DOPC   D2A 1806  24.329  25.361   6.402
  212DOPC   C3A 1807  24.729  25.371   6.242
  212DOPC   C4A 1808  25.199  25.341   6.422
  212DOPC   C1B 1809  23.869  25.101   6.712
  212DOPC   D2B 1810  23.909  25.151   6.322
  212DOPC   C3B 1811  23.569  25.011   6.072
  212DOPC   C4B 1812  23.309  25.051   5.752
  213DOPC   NC3 1813   3.359  14.414   7.142
  213DOPC   PO4 1814   3.709  14.624   7.292
  213DOPC   GL1 1815   3.579  14.774   6.842
  213DOPC   GL2 1816   3.179  14.584   6.692
  213DOPC   C1A 1817   3.769  14.844   6.352
  213DOPC   D2A 1818   3.649  14.794   5.922
  213DOPC   C3A 1819   3.229  14.944   5.762
  213DOPC   C4A 1820   2.959  15.274   5.722
  213DOPC   C1B 1821   3.479  14.464   6.422
  213DOPC   D2B 1822   3.949  14.384   6.092
  213DOPC   C3B 1823   3.799  14.394   5.642
  213DOPC   C4B 1824   3.779  14.144   5.282
  214DOPC   NC3 1825  15.059  15.044   8.662
  214DOPC   PO4 1826  14.719  14.914   8.682
  214DOPC   GL1 1827  14.969  14.614   8.382
  214DOPC   GL2 1828  15.139  14.794   8.192
  214DOPC   C1A 1829  14.979  14.394   7.992
  214DOPC   D2A 1830  14.989  14.144   7.572
  214DOPC   C3A 1831  14.549  13.964   7.402
  214DOPC   C4A 1832  14.239  14.074   7.262
  214DOPC   C1B 1833  14.909  15.004   7.982
  214DOPC   D2B 1834  14.599  15.024   7.672
  214DOPC   C3B 1835  14.049  14.944   7.732
  214DOPC   C4B 1836  13.689  14.974   7.902
  215DOPC   NC3 1837   3.739   1.364   7.222
  215DOPC   PO4 1838   3.659   0.994   7.262
  215DOPC   GL1 1839   3.979   0.734   7.032
  215DOPC   GL2 1840   4.199   0.874   6.942
  215DOPC   C1A 1841   4.019   0.534   6.652
  215DOPC   D2A 1842   3.949   0.374   6.232
  215DOPC   C3A 1843   3.639   0.544   5.912
  215DOPC   C4A 1844   3.369   1.014   5.702
  215DOPC   C1B 1845   4.219   1.004   6.512
  215DOPC   D2B 1846   4.339   0.684   6.192
  215DOPC   C3B 1847   4.719   0.694   6.022
  215DOPC   C4B 1848   5.039   0.614   5.642
  216DOPC   NC3 1849   3.809   7.604   6.502
  216DOPC   PO4 1850   3.579   7.954   6.582
  216DOPC   GL1 1851   3.469   7.824   6.202
  216DOPC   GL2 1852   3.229   7.614   6.162
  216DOPC   C1A 1853   3.299   7.604   5.682
  216DOPC   D2A 1854   3.129   7.314   5.452
  216DOPC   C3A 1855   2.789   7.334   5.372
  216DOPC   C4A 1856   2.459   7.114   5.222
  216DOPC   C1B 1857   3.249   7.164   5.942
  216DOPC   D2B 1858   2.909   6.994   6.042
  216DOPC   C3B 1859   2.769   6.864   5.632
  216DOPC   C4B 1860   2.969   6.884   5.162
  217DOPC   NC3 1861  23.249   1.214   3.702
  217DOPC   PO4 1862  23.359   0.764   3.812
  217DOPC   GL1 1863  23.479   0.604   4.132
  217DOPC   GL2 1864  23.209   0.564   4.262
  217DOPC   C1A 1865  23.639   0.674   4.572
  217DOPC   D2A 1866  24.029   0.734   4.852
  217DOPC   C3A 1867  24.209   0.744   5.252
  217DOPC   C4A 1868  24.399   0.714   5.642
  217DOPC   C1B 1869  22.919   0.574   4.502
  217DOPC   D2B 1870  22.539   0.664   4.682
  217DOPC   C3B 1871  22.289   0.374   4.882
  217DOPC   C4B 1872  22.239  -0.056   4.862
  218DOPC   NC3 1873  19.659  17.464   3.332
  218DOPC   PO4 1874  20.109  17.704   3.462
  218DOPC   GL1 1875  20.199  17.844   3.852
  218DOPC   GL2 1876  20.069  17.584   4.032
  218DOPC   C1A 1877  20.419  17.944   4.192
  218DOPC   D2A 1878  20.819  17.984   4.472
  218DOPC   C3A 1879  21.179  17.684   4.632
  218DOPC   C4A 1880  21.429  17.564   4.382
  218DOPC   C1B 1881  20.239  17.544   4.392
  218DOPC   D2B 1882  20.369  17.664   4.862
  218DOPC   C3B 1883  20.399  17.394   5.152
  218DOPC   C4B 1884  20.409  17.124   5.462
  219DOPC   NC3 1885  18.059  16.444   7.382
  219DOPC   PO4 1886  17.649  16.554   7.402
  219DOPC   GL1 1887  17.629  16.794   7.032
  219DOPC   GL2 1888  17.779  17.224   7.102
  219DOPC   C1A 1889  17.709  16.714   6.612
  219DOPC   D2A 1890  17.819  16.794   6.242
  219DOPC   C3A 1891  17.459  16.794   5.902
  219DOPC   C4A 1892  17.219  17.074   5.632
  219DOPC   C1B 1893  17.869  17.144   6.652
  219DOPC   D2B 1894  18.259  17.014   6.492
  219DOPC   C3B 1895  18.269  17.024   6.072
  219DOPC   C4B 1896  18.389  17.284   5.742
  220DOPC   NC3 1897  16.539  23.291   7.862
  220DOPC   PO4 1898  16.769  23.591   7.672
  220DOPC   GL1 1899  16.619  23.901   7.372
  220DOPC   GL2 1900  16.809  24.051   7.222
  220DOPC   C1A 1901  16.279  24.011   6.962
  220DOPC   D2A 1902  16.279  24.291   6.592
  220DOPC   C3A 1903  16.119  24.461   6.252
  220DOPC   C4A 1904  16.089  24.781   5.972
  220DOPC   C1B 1905  16.849  23.961   6.832
  220DOPC   D2B 1906  16.989  23.811   6.382
  220DOPC   C3B 1907  17.149  23.461   6.322
  220DOPC   C4B 1908  17.169  23.101   6.042
  221DOPC   NC3 1909   6.519   7.594   7.562
  221DOPC   PO4 1910   6.929   7.664   7.522
  221DOPC   GL1 1911   7.229   7.814   7.242
  221DOPC   GL2 1912   7.349   7.554   7.072
  221DOPC   C1A 1913   7.469   8.044   6.952
  221DOPC   D2A 1914   7.709   8.204   6.532
  221DOPC   C3A 1915   8.089   7.974   6.632
  221DOPC   C4A 1916   8.419   7.604   6.472
  221DOPC   C1B 1917   7.249   7.544   6.662
  221DOPC   D2B 1918   7.119   7.754   6.332
  221DOPC   C3B 1919   7.209   8.154   6.152
  221DOPC   C4B 1920   7.139   8.564   5.972
  222DOPC   NC3 1921   2.969   1.954   7.492
  222DOPC   PO4 1922   2.629   2.104   7.252
  222DOPC   GL1 1923   2.609   1.914   6.852
  222DOPC   GL2 1924   2.749   2.174   6.602
  222DOPC   C1A 1925   2.859   1.664   6.522
  222DOPC   D2A 1926   2.689   1.494   6.252
  222DOPC   C3A 1927   2.429   1.704   5.902
  222DOPC   C4A 1928   2.359   2.064   5.742
  222DOPC   C1B 1929   2.989   2.394   6.482
  222DOPC   D2B 1930   3.209   2.354   6.152
  222DOPC   C3B 1931   3.359   2.794   5.932
  222DOPC   C4B 1932   3.269   3.064   5.672
  223DOPC   NC3 1933   5.299  24.501   7.892
  223DOPC   PO4 1934   4.919  24.241   7.852
  223DOPC   GL1 1935   5.079  24.311   7.462
  223DOPC   GL2 1936   4.869  24.241   7.232
  223DOPC   C1A 1937   5.269  24.151   7.032
  223DOPC   D2A 1938   5.349  24.121   6.522
  223DOPC   C3A 1939   5.579  24.361   6.072
  223DOPC   C4A 1940   5.679  24.371   5.662
  223DOPC   C1B 1941   4.519  24.491   7.052
  223DOPC   D2B 1942   4.339  24.511   6.582
  223DOPC   C3B 1943   4.609  24.231   6.282
  223DOPC   C4B 1944   4.979  24.021   6.212
  224DOPC   NC3 1945   9.729  21.611   3.972
  224DOPC   PO4 1946   9.389  21.671   4.312
  224DOPC   GL1 1947   9.459  21.811   4.872
  224DOPC   GL2 1948   9.399  22.181   5.032
  224DOPC   C1A 1949   9.469  21.761   5.372
  224DOPC   D2A 1950   9.519  21.611   5.802
  224DOPC   C3A 1951   9.229  21.224   5.932
  224DOPC   C4A 1952   9.049  21.024   6.312
  224DOPC   C1B 1953   9.199  22.191   5.372
  224DOPC   D2B 1954   8.939  22.311   5.792
  224DOPC   C3B 1955   9.029  22.051   6.142
  224DOPC   C4B 1956   9.449  21.951   6.302
  225DOPC   NC3 1957  16.609  16.484   7.962
  225DOPC   PO4 1958  16.839  16.194   8.242
  225DOPC   GL1 1959  16.609  15.904   7.882
  225DOPC   GL2 1960  16.699  16.094   7.532
  225DOPC   C1A 1961  16.479  15.644   7.522
  225DOPC   D2A 1962  16.409  15.274   7.322
  225DOPC   C3A 1963  16.099  15.344   6.942
  225DOPC   C4A 1964  16.019  15.594   6.592
  225DOPC   C1B 1965  16.649  16.374   7.242
  225DOPC   D2B 1966  16.489  16.404   6.822
  225DOPC   C3B 1967  16.319  16.114   6.582
  225DOPC   C4B 1968  16.519  15.714   6.622
  226DOPC   NC3 1969  13.099  20.064   8.192
  226DOPC   PO4 1970  12.849  19.684   8.202
  226DOPC   GL1 1971  13.099  19.644   7.832
  226DOPC   GL2 1972  13.369  19.804   7.832
  226DOPC   C1A 1973  13.019  19.414   7.452
  226DOPC   D2A 1974  13.129  19.374   6.972
  226DOPC   C3A 1975  12.739  19.374   6.692
  226DOPC   C4A 1976  12.559  19.304   6.302
  226DOPC   C1B 1977  13.129  19.964   7.392
  226DOPC   D2B 1978  12.739  19.914   7.242
  226DOPC   C3B 1979  12.539  19.524   7.202
  226DOPC   C4B 1980  12.759  19.024   7.242
  227DOPC   NC3 1981   7.769  17.684   7.662
  227DOPC   PO4 1982   7.689  18.134   7.662
  227DOPC   GL1 1983   7.939  18.084   7.402
  227DOPC   GL2 1984   7.939  18.144   7.022
  227DOPC   C1A 1985   8.379  17.924   7.242
  227DOPC   D2A 1986   8.549  18.064   6.862
  227DOPC   C3A 1987   8.619  18.474   6.792
  227DOPC   C4A 1988   8.569  18.704   6.462
  227DOPC   C1B 1989   8.159  18.004   6.602
  227DOPC   D2B 1990   8.499  17.674   6.552
  227DOPC   C3B 1991   8.639  17.454   6.892
  227DOPC   C4B 1992   8.599  17.344   7.352
  228DOPC   NC3 1993  22.089   9.514   7.502
  228DOPC   PO4 1994  22.439   9.464   7.242
  228DOPC   GL1 1995  22.309   9.604   6.822
  228DOPC   GL2 1996  22.409   9.854   6.572
  228DOPC   C1A 1997  21.929   9.634   6.582
  228DOPC   D2A 1998  21.529   9.544   6.322
  228DOPC   C3A 1999  21.299   9.784   6.092
  228DOPC   C4A 2000  21.329  10.114   5.882
  228DOPC   C1B 2001  22.309   9.994   6.272
  228DOPC   D2B 2002  22.029  10.394   6.182
  228DOPC   C3B 2003  21.709  10.434   5.932
  228DOPC   C4B 2004  21.439  10.384   5.522
  229DOPC   NC3 2005   3.529  20.614   7.662
  229DOPC   PO4 2006   3.909  20.424   7.672
  229DOPC   GL1 2007   3.719  20.144   7.332
  229DOPC   GL2 2008   3.689  19.844   7.482
  229DOPC   C1A 2009   3.419  20.014   6.972
  229DOPC   D2A 2010   3.259  20.344   6.732
  229DOPC   C3A 2011   3.139  20.414   6.292
  229DOPC   C4A 2012   3.359  20.524   5.902
  229DOPC   C1B 2013   4.139  19.754   7.282
  229DOPC   D2B 2014   4.259  19.544   6.982
  229DOPC   C3B 2015   4.339  19.754   6.752
  229DOPC   C4B 2016   4.179  20.124   6.532
  230DOPC   NC3 2017  10.739  19.384   8.562
  230DOPC   PO4 2018  10.469  19.774   8.672
  230DOPC   GL1 2019  10.319  19.944   8.262
  230DOPC   GL2 2020   9.979  20.034   8.242
  230DOPC   C1A 2021  10.379  19.814   7.912
  230DOPC   D2A 2022  10.779  19.834   7.732
  230DOPC   C3A 2023  10.899  20.044   7.422
  230DOPC   C4A 2024  10.969  19.994   6.992
  230DOPC   C1B 2025   9.859  20.024   7.822
  230DOPC   D2B 2026   9.669  19.954   7.342
  230DOPC   C3B 2027   9.849  20.124   7.032
  230DOPC   C4B 2028  10.089  20.044   6.682
  231DOPC   NC3 2029   1.339   5.834   3.022
  231DOPC   PO4 2030   1.529   5.704   3.412
  231DOPC   GL1 2031   1.349   5.614   3.762
  231DOPC   GL2 2032   1.339   5.224   3.832
  231DOPC   C1A 2033   0.949   5.684   3.912
  231DOPC   D2A 2034   0.599   5.924   3.712
  231DOPC   C3A 2035   0.239   5.894   3.922
  231DOPC   C4A 2036   0.329   5.974   4.352
  231DOPC   C1B 2037   1.439   4.974   4.022
  231DOPC   D2B 2038   1.649   4.944   4.412
  231DOPC   C3B 2039   1.949   5.254   4.572
  231DOPC   C4B 2040   2.179   5.304   4.822
  232DOPC   NC3 2041  21.369  11.444   3.462
  232DOPC   PO4 2042  21.079  11.244   3.632
  232DOPC   GL1 2043  21.109  10.924   3.962
  232DOPC   GL2 2044  20.809  10.854   4.042
  232DOPC   C1A 2045  21.259  10.814   4.282
  232DOPC   D2A 2046  21.519  10.854   4.682
  232DOPC   C3A 2047  21.509  11.204   4.832
  232DOPC   C4A 2048  21.619  11.684   4.592
  232DOPC   C1B 2049  20.819  10.684   4.502
  232DOPC   D2B 2050  20.669  10.584   4.902
  232DOPC   C3B 2051  20.669  10.904   5.252
  232DOPC   C4B 2052  20.899  11.054   5.622
  233DOPC   NC3 2053   2.849   6.754   7.002
  233DOPC   PO4 2054   2.469   6.574   6.972
  233DOPC   GL1 2055   2.569   6.284   6.622
  233DOPC   GL2 2056   2.369   6.284   6.322
  233DOPC   C1A 2057   2.829   6.274   6.272
  233DOPC   D2A 2058   3.169   6.554   6.112
  233DOPC   C3A 2059   3.239   6.724   5.612
  233DOPC   C4A 2060   3.389   6.524   5.152
  233DOPC   C1B 2061   2.269   6.124   5.992
  233DOPC   D2B 2062   2.349   6.114   5.582
  233DOPC   C3B 2063   2.019   6.304   5.332
  233DOPC   C4B 2064   1.869   6.564   5.042
  234DOPC   NC3 2065   0.539   8.684   2.822
  234DOPC   PO4 2066   0.579   8.324   2.912
  234DOPC   GL1 2067   0.269   8.184   3.222
  234DOPC   GL2 2068  -0.079   8.294   3.302
  234DOPC   C1A 2069   0.139   8.004   3.652
  234DOPC   D2A 2070  -0.069   7.744   3.662
  234DOPC   C3A 2071  -0.219   7.694   4.032
  234DOPC   C4A 2072  -0.549   7.674   4.412
  234DOPC   C1B 2073  -0.189   8.434   3.782
  234DOPC   D2B 2074   0.011   8.384   4.052
  234DOPC   C3B 2075  -0.009   8.654   4.492
  234DOPC   C4B 2076  -0.149   8.664   4.932
  235DOPC   NC3 2077  22.749  12.144   3.842
  235DOPC   PO4 2078  22.489  12.064   3.622
  235DOPC   GL1 2079  22.319  11.904   4.002
  235DOPC   GL2 2080  22.599  11.844   4.262
  235DOPC   C1A 2081  22.109  11.804   4.402
  235DOPC   D2A 2082  22.059  11.644   4.892
  235DOPC   C3A 2083  21.969  11.104   5.042
  235DOPC   C4A 2084  22.119  10.904   5.342
  235DOPC   C1B 2085  22.609  11.894   4.722
  235DOPC   D2B 2086  22.489  11.904   5.172
  235DOPC   C3B 2087  22.059  11.784   5.442
  235DOPC   C4B 2088  21.759  11.514   5.232
  236DOPC   NC3 2089  17.829  10.714   8.162
  236DOPC   PO4 2090  18.199  10.984   8.292
  236DOPC   GL1 2091  17.979  11.084   7.822
  236DOPC   GL2 2092  17.619  10.984   7.822
  236DOPC   C1A 2093  17.919  10.944   7.362
  236DOPC   D2A 2094  17.689  10.974   6.962
  236DOPC   C3A 2095  17.819  10.734   6.692
  236DOPC   C4A 2096  18.089  10.394   6.662
  236DOPC   C1B 2097  17.469  11.124   7.432
  236DOPC   D2B 2098  17.289  11.064   7.172
  236DOPC   C3B 2099  17.229  10.824   6.852
  236DOPC   C4B 2100  17.429  10.944   6.522
  237DOPC   NC3 2101   0.289  15.514  11.752
  237DOPC   PO4 2102   0.011  15.784  11.872
  237DOPC   GL1 2103   0.041  15.704  12.292
  237DOPC   GL2 2104  -0.289  15.694  12.412
  237DOPC   C1A 2105   0.269  15.444  12.672
  237DOPC   D2A 2106   0.469  15.284  13.042
  237DOPC   C3A 2107   0.709  15.574  13.262
  237DOPC   C4A 2108   0.709  15.844  13.612
  237DOPC   C1B 2109  -0.239  15.664  12.842
  237DOPC   D2B 2110  -0.039  15.364  13.192
  237DOPC   C3B 2111   0.189  14.994  13.282
  237DOPC   C4B 2112   0.719  14.924  13.362
  238DOPC   NC3 2113  19.189  24.261   7.632
  238DOPC   PO4 2114  18.839  24.351   7.382
  238DOPC   GL1 2115  18.819  23.971   7.152
  238DOPC   GL2 2116  18.589  23.721   7.072
  238DOPC   C1A 2117  18.749  23.951   6.622
  238DOPC   D2A 2118  18.329  24.091   6.342
  238DOPC   C3A 2119  18.249  23.901   5.952
  238DOPC   C4A 2120  18.459  23.571   5.592
  238DOPC   C1B 2121  18.389  24.111   6.882
  238DOPC   D2B 2122  18.349  24.461   6.632
  238DOPC   C3B 2123  18.279  24.621   6.192
  238DOPC   C4B 2124  18.429  24.851   5.802
  239DOPC   NC3 2125  24.419   9.594   6.952
  239DOPC   PO4 2126  24.459   9.224   7.012
  239DOPC   GL1 2127  24.199   9.254   6.602
  239DOPC   GL2 2128  24.459   9.434   6.482
  239DOPC   C1A 2129  23.919   9.414   6.322
  239DOPC   D2A 2130  23.529   9.514   6.102
  239DOPC   C3A 2131  23.509   9.934   6.202
  239DOPC   C4A 2132  23.249  10.284   6.102
  239DOPC   C1B 2133  24.499   9.664   6.142
  239DOPC   D2B 2134  24.519   9.684   5.592
  239DOPC   C3B 2135  24.899   9.484   5.422
  239DOPC   C4B 2136  25.319   9.424   5.152
  240DOPC   NC3 2137   3.009   0.744   7.212
  240DOPC   PO4 2138   3.189   0.424   7.522
  240DOPC   GL1 2139   2.889   0.264   7.162
  240DOPC   GL2 2140   3.029   0.354   6.942
  240DOPC   C1A 2141   2.559   0.114   6.802
  240DOPC   D2A 2142   2.129   0.194   6.462
  240DOPC   C3A 2143   2.149   0.294   6.032
  240DOPC   C4A 2144   1.819   0.364   5.712
  240DOPC   C1B 2145   2.979   0.214   6.532
  240DOPC   D2B 2146   2.669   0.274   6.232
  240DOPC   C3B 2147   2.529  -0.076   6.062
  240DOPC   C4B 2148   2.719  -0.216   5.662
  241DOPC   NC3 2149   4.289   2.694   3.292
  241DOPC   PO4 2150   4.309   2.814   3.722
  241DOPC   GL1 2151   4.409   2.964   4.082
  241DOPC   GL2 2152   4.509   2.684   4.282
  241DOPC   C1A 2153   4.549   3.094   4.512
  241DOPC   D2A 2154   4.389   2.794   4.862
  241DOPC   C3A 2155   4.479   2.594   5.202
  241DOPC   C4A 2156   4.259   2.264   5.522
  241DOPC   C1B 2157   4.669   2.464   4.592
  241DOPC   D2B 2158   4.989   2.494   4.972
  241DOPC   C3B 2159   5.139   2.054   5.242
  241DOPC   C4B 2160   5.319   2.074   5.652
  242DOPC   NC3 2161  20.899  17.484   7.582
  242DOPC   PO4 2162  21.189  17.874   7.632
  242DOPC   GL1 2163  21.059  18.034   7.242
  242DOPC   GL2 2164  20.749  17.884   7.092
  242DOPC   C1A 2165  21.179  17.924   6.822
  242DOPC   D2A 2166  21.439  18.044   6.512
  242DOPC   C3A 2167  21.319  18.214   6.102
  242DOPC   C4A 2168  21.469  18.264   5.732
  242DOPC   C1B 2169  20.569  18.064   6.712
  242DOPC   D2B 2170  20.439  18.204   6.272
  242DOPC   C3B 2171  20.649  18.284   5.852
  242DOPC   C4B 2172  20.669  18.744   5.582
  243DOPC   NC3 2173  20.599  23.181   7.812
  243DOPC   PO4 2174  20.409  22.871   7.582
  243DOPC   GL1 2175  20.249  23.241   7.392
  243DOPC   GL2 2176  20.039  23.031   7.222
  243DOPC   C1A 2177  20.289  23.391   6.942
  243DOPC   D2A 2178  20.239  23.701   6.652
  243DOPC   C3A 2179  20.279  23.791   6.152
  243DOPC   C4A 2180  20.169  24.211   5.832
  243DOPC   C1B 2181  19.989  23.101   6.732
  243DOPC   D2B 2182  19.869  23.491   6.402
  243DOPC   C3B 2183  19.909  23.481   5.992
  243DOPC   C4B 2184  19.969  23.741   5.702
  244DOPC   NC3 2185  10.619  23.421   8.392
  244DOPC   PO4 2186  10.719  22.961   8.402
  244DOPC   GL1 2187  10.959  22.771   7.982
  244DOPC   GL2 2188  11.279  22.691   7.932
  244DOPC   C1A 2189  10.879  22.711   7.522
  244DOPC   D2A 2190  10.969  22.731   7.052
  244DOPC   C3A 2191  11.399  22.861   6.712
  244DOPC   C4A 2192  11.629  23.101   6.312
  244DOPC   C1B 2193  11.479  22.411   7.542
  244DOPC   D2B 2194  11.279  22.261   7.142
  244DOPC   C3B 2195  11.389  22.371   6.802
  244DOPC   C4B 2196  11.139  22.481   6.512
  245DOPC   NC3 2197   1.989  11.494   7.612
  245DOPC   PO4 2198   1.959  11.044   7.632
  245DOPC   GL1 2199   2.059  11.104   7.202
  245DOPC   GL2 2200   1.809  11.054   6.882
  245DOPC   C1A 2201   2.159  11.404   6.882
  245DOPC   D2A 2202   2.429  11.644   6.592
  245DOPC   C3A 2203   2.259  11.884   6.272
  245DOPC   C4A 2204   2.079  12.064   5.892
  245DOPC   C1B 2205   1.859  11.104   6.402
  245DOPC   D2B 2206   2.129  11.344   6.282
  245DOPC   C3B 2207   2.319  11.464   5.902
  245DOPC   C4B 2208   2.349  11.414   5.532
  246DOPC   NC3 2209  19.969  16.194   3.902
  246DOPC   PO4 2210  20.319  16.014   3.862
  246DOPC   GL1 2211  20.449  16.034   4.272
  246DOPC   GL2 2212  20.199  15.854   4.372
  246DOPC   C1A 2213  20.759  16.154   4.552
  246DOPC   D2A 2214  21.099  16.294   4.802
  246DOPC   C3A 2215  21.079  16.354   5.272
  246DOPC   C4A 2216  21.299  16.544   5.422
  246DOPC   C1B 2217  20.289  15.944   4.822
  246DOPC   D2B 2218  20.329  15.824   5.272
  246DOPC   C3B 2219  20.019  16.004   5.642
  246DOPC   C4B 2220  19.959  16.424   5.792
  247DOPC   NC3 2221  24.689   5.454   2.982
  247DOPC   PO4 2222  24.779   5.864   3.192
  247DOPC   GL1 2223  24.829   5.954   3.652
  247DOPC   GL2 2224  25.109   5.964   3.562
  247DOPC   C1A 2225  25.019   5.634   4.002
  247DOPC   D2A 2226  24.999   5.414   4.362
  247DOPC   C3A 2227  24.779   5.594   4.762
  247DOPC   C4A 2228  24.789   5.344   5.042
  247DOPC   C1B 2229  25.359   6.024   3.992
  247DOPC   D2B 2230  25.369   6.224   4.392
  247DOPC   C3B 2231  25.706   6.244   4.792
  247DOPC   C4B 2232  26.076   6.084   4.852
  248DOPC   NC3 2233   9.529   7.654   4.322
  248DOPC   PO4 2234   9.809   7.254   4.382
  248DOPC   GL1 2235   9.579   7.264   4.752
  248DOPC   GL2 2236   9.239   7.094   4.682
  248DOPC   C1A 2237   9.369   7.214   5.242
  248DOPC   D2A 2238   9.309   7.214   5.682
  248DOPC   C3A 2239   8.869   7.184   5.782
  248DOPC   C4A 2240   8.459   7.274   5.662
  248DOPC   C1B 2241   8.879   7.334   5.012
  248DOPC   D2B 2242   8.679   7.514   5.252
  248DOPC   C3B 2243   8.809   7.624   5.572
  248DOPC   C4B 2244   8.629   7.714   5.842
  249DOPC   NC3 2245  19.729  15.234   7.582
  249DOPC   PO4 2246  19.269  15.244   7.582
  249DOPC   GL1 2247  19.429  15.214   7.142
  249DOPC   GL2 2248  19.629  15.094   6.962
  249DOPC   C1A 2249  19.369  15.444   6.682
  249DOPC   D2A 2250  19.399  15.644   6.132
  249DOPC   C3A 2251  19.769  15.834   6.142
  249DOPC   C4A 2252  19.989  16.194   6.302
  249DOPC   C1B 2253  19.209  14.944   6.762
  249DOPC   D2B 2254  18.829  15.014   6.662
  249DOPC   C3B 2255  18.649  15.084   6.372
  249DOPC   C4B 2256  18.389  15.024   6.062
  250DOPC   NC3 2257  21.269  13.524   3.502
  250DOPC   PO4 2258  21.589  13.424   3.322
  250DOPC   GL1 2259  21.779  13.344   3.732
  250DOPC   GL2 2260  21.899  13.114   3.912
  250DOPC   C1A 2261  21.669  13.464   4.162
  250DOPC   D2A 2262  21.519  13.374   4.592
  250DOPC   C3A 2263  21.569  12.994   4.832
  250DOPC   C4A 2264  21.729  12.564   5.002
  250DOPC   C1B 2265  21.899  13.094   4.412
  250DOPC   D2B 2266  22.059  13.344   4.782
  250DOPC   C3B 2267  21.859  13.254   5.182
  250DOPC   C4B 2268  21.939  12.974   5.412
  251DOPC   NC3 2269  23.099   3.564  11.832
  251DOPC   PO4 2270  22.869   3.794  11.642
  251DOPC   GL1 2271  22.899   3.984  12.072
  251DOPC   GL2 2272  22.699   4.164  12.152
  251DOPC   C1A 2273  23.239   4.264  12.312
  251DOPC   D2A 2274  23.619   4.394  12.552
  251DOPC   C3A 2275  23.549   4.454  13.032
  251DOPC   C4A 2276  23.349   4.354  13.482
  251DOPC   C1B 2277  22.819   4.304  12.592
  251DOPC   D2B 2278  22.759   4.184  12.952
  251DOPC   C3B 2279  22.699   4.564  13.162
  251DOPC   C4B 2280  22.309   4.824  13.122
  252DOPC   NC3 2281   5.109  24.121   3.812
  252DOPC   PO4 2282   5.319  24.241   4.122
  252DOPC   GL1 2283   5.139  24.011   4.462
  252DOPC   GL2 2284   5.019  23.711   4.572
  252DOPC   C1A 2285   5.379  23.991   4.812
  252DOPC   D2A 2286   5.829  24.061   4.852
  252DOPC   C3A 2287   6.209  23.941   4.972
  252DOPC   C4A 2288   6.509  23.811   5.202
  252DOPC   C1B 2289   5.169  23.571   5.072
  252DOPC   D2B 2290   5.549  23.841   5.332
  252DOPC   C3B 2291   5.809  23.721   5.722
  252DOPC   C4B 2292   5.709  23.371   6.002
  253DOPC   NC3 2293  18.909   0.464   3.642
  253DOPC   PO4 2294  18.789   0.934   3.762
  253DOPC   GL1 2295  18.689   0.994   4.192
  253DOPC   GL2 2296  18.909   0.844   4.412
  253DOPC   C1A 2297  18.439   1.054   4.592
  253DOPC   D2A 2298  18.339   1.164   5.012
  253DOPC   C3A 2299  18.029   1.394   5.182
  253DOPC   C4A 2300  17.849   1.644   5.482
  253DOPC   C1B 2301  18.909   1.074   4.892
  253DOPC   D2B 2302  18.699   1.124   5.332
  253DOPC   C3B 2303  18.499   1.594   5.372
  253DOPC   C4B 2304  18.349   1.704   5.672
  254DOPC   NC3 2305   1.219   3.874   6.912
  254DOPC   PO4 2306   1.389   4.214   6.932
  254DOPC   GL1 2307   1.319   3.984   6.452
  254DOPC   GL2 2308   1.109   3.884   6.312
  254DOPC   C1A 2309   1.599   4.044   6.122
  254DOPC   D2A 2310   1.549   4.014   5.662
  254DOPC   C3A 2311   1.509   4.204   5.282
  254DOPC   C4A 2312   1.659   4.504   5.132
  254DOPC   C1B 2313   1.099   3.864   5.922
  254DOPC   D2B 2314   1.179   3.434   5.762
  254DOPC   C3B 2315   1.089   3.304   5.392
  254DOPC   C4B 2316   1.389   3.374   4.952
  255DOPC   NC3 2317  19.249  22.381   4.142
  255DOPC   PO4 2318  19.679  22.471   3.972
  255DOPC   GL1 2319  19.629  22.611   4.422
  255DOPC   GL2 2320  19.949  22.641   4.462
  255DOPC   C1A 2321  19.659  22.571   4.872
  255DOPC   D2A 2322  19.299  22.441   5.102
  255DOPC   C3A 2323  19.309  22.101   5.302
  255DOPC   C4A 2324  19.039  22.031   5.632
  255DOPC   C1B 2325  20.209  22.711   4.762
  255DOPC   D2B 2326  20.059  22.891   5.172
  255DOPC   C3B 2327  20.069  23.421   5.312
  255DOPC   C4B 2328  19.869  23.921   5.252
  256DOPC   NC3 2329   9.899  10.404   4.422
  256DOPC   PO4 2330  10.119   9.934   4.292
  256DOPC   GL1 2331  10.069   9.924   4.682
  256DOPC   GL2 2332  10.169  10.194   4.722
  256DOPC   C1A 2333   9.799   9.834   5.032
  256DOPC   D2A 2334   9.729   9.904   5.472
  256DOPC   C3A 2335   9.879   9.804   5.882
  256DOPC   C4A 2336   9.999  10.014   6.182
  256DOPC   C1B 2337  10.169  10.154   5.192
  256DOPC   D2B 2338  10.209  10.054   5.622
  256DOPC   C3B 2339  10.399   9.714   5.912
  256DOPC   C4B 2340  10.279   9.574   6.342
  257DOPC   NC3 2341  11.139  22.651   4.552
  257DOPC   PO4 2342  11.269  22.841   4.952
  257DOPC   GL1 2343  11.369  23.091   5.302
  257DOPC   GL2 2344  11.079  23.341   5.382
  257DOPC   C1A 2345  11.389  23.111   5.792
  257DOPC   D2A 2346  11.419  22.691   6.102
  257DOPC   C3A 2347  11.639  22.551   6.352
  257DOPC   C4A 2348  12.089  22.541   6.532
  257DOPC   C1B 2349  10.869  23.781   5.312
  257DOPC   D2B 2350  11.059  24.161   5.232
  257DOPC   C3B 2351  11.449  24.111   5.222
  257DOPC   C4B 2352  11.889  24.031   5.192
  258DOPC   NC3 2353  18.449   7.624   7.772
  258DOPC   PO4 2354  18.039   7.484   7.982
  258DOPC   GL1 2355  18.109   7.354   7.572
  258DOPC   GL2 2356  17.839   7.174   7.542
  258DOPC   C1A 2357  17.899   7.494   7.162
  258DOPC   D2A 2358  17.779   7.154   6.982
  258DOPC   C3A 2359  17.549   7.114   6.612
  258DOPC   C4A 2360  17.339   7.414   6.322
  258DOPC   C1B 2361  18.039   6.864   7.392
  258DOPC   D2B 2362  18.179   6.834   6.932
  258DOPC   C3B 2363  18.559   6.684   6.922
  258DOPC   C4B 2364  18.969   6.584   6.792
  259DOPC   NC3 2365   1.909  12.644   3.322
  259DOPC   PO4 2366   2.339  12.384   3.372
  259DOPC   GL1 2367   2.129  12.514   3.812
  259DOPC   GL2 2368   2.079  12.314   4.102
  259DOPC   C1A 2369   2.309  12.874   4.182
  259DOPC   D2A 2370   2.469  13.264   4.282
  259DOPC   C3A 2371   2.449  13.624   4.662
  259DOPC   C4A 2372   2.279  13.794   5.062
  259DOPC   C1B 2373   1.929  12.474   4.482
  259DOPC   D2B 2374   2.009  12.764   4.832
  259DOPC   C3B 2375   2.349  12.764   5.102
  259DOPC   C4B 2376   2.729  12.634   5.242
  260DOPC   NC3 2377  14.819   3.474   8.302
  260DOPC   PO4 2378  14.509   3.094   8.292
  260DOPC   GL1 2379  14.479   3.224   7.872
  260DOPC   GL2 2380  14.639   3.454   7.822
  260DOPC   C1A 2381  14.449   2.954   7.562
  260DOPC   D2A 2382  14.529   2.764   7.212
  260DOPC   C3A 2383  14.349   2.454   7.012
  260DOPC   C4A 2384  14.179   2.194   6.762
  260DOPC   C1B 2385  14.609   3.364   7.362
  260DOPC   D2B 2386  14.699   3.184   6.952
  260DOPC   C3B 2387  14.879   2.754   6.802
  260DOPC   C4B 2388  14.629   2.544   6.522
  261DOPC   NC3 2389  24.549  17.574   7.362
  261DOPC   PO4 2390  24.349  18.004   7.332
  261DOPC   GL1 2391  24.479  17.974   6.922
  261DOPC   GL2 2392  24.509  18.284   6.822
  261DOPC   C1A 2393  24.739  17.644   6.782
  261DOPC   D2A 2394  24.779  17.414   6.312
  261DOPC   C3A 2395  24.679  17.554   5.952
  261DOPC   C4A 2396  24.449  17.954   5.972
  261DOPC   C1B 2397  24.849  18.374   6.762
  261DOPC   D2B 2398  25.159  18.324   6.472
  261DOPC   C3B 2399  25.219  18.064   6.182
  261DOPC   C4B 2400  24.979  17.964   5.802
  262DOPC   NC3 2401  19.369  -0.176   3.922
  262DOPC   PO4 2402  19.039   0.124   3.962
  262DOPC   GL1 2403  19.049   0.294   4.422
  262DOPC   GL2 2404  19.109   0.054   4.482
  262DOPC   C1A 2405  18.929   0.124   4.982
  262DOPC   D2A 2406  18.819   0.344   5.392
  262DOPC   C3A 2407  18.999   0.774   5.312
  262DOPC   C4A 2408  19.239   1.194   5.292
  262DOPC   C1B 2409  19.359   0.224   4.762
  262DOPC   D2B 2410  19.289   0.394   5.212
  262DOPC   C3B 2411  19.499   0.724   5.312
  262DOPC   C4B 2412  19.699   1.024   5.592
  263DOPC   NC3 2413  10.739   1.004   7.632
  263DOPC   PO4 2414  11.109   1.044   7.822
  263DOPC   GL1 2415  11.159   1.114   7.422
  263DOPC   GL2 2416  10.779   1.304   7.292
  263DOPC   C1A 2417  11.229   1.504   7.142
  263DOPC   D2A 2418  11.309   1.644   6.732
  263DOPC   C3A 2419  11.449   1.484   6.372
  263DOPC   C4A 2420  11.719   1.354   6.032
  263DOPC   C1B 2421  10.649   1.394   6.882
  263DOPC   D2B 2422  10.899   1.434   6.382
  263DOPC   C3B 2423  10.659   1.164   5.962
  263DOPC   C4B 2424  10.909   0.854   5.612
  264DOPC   NC3 2425  19.269  12.124   3.752
  264DOPC   PO4 2426  19.269  11.804   4.052
  264DOPC   GL1 2427  19.289  12.174   4.242
  264DOPC   GL2 2428  19.109  12.044   4.522
  264DOPC   C1A 2429  19.379  12.534   4.512
  264DOPC   D2A 2430  19.439  12.544   4.972
  264DOPC   C3A 2431  19.869  12.374   5.212
  264DOPC   C4A 2432  20.269  12.584   5.322
  264DOPC   C1B 2433  19.329  11.984   4.982
  264DOPC   D2B 2434  19.279  12.284   5.392
  264DOPC   C3B 2435  18.989  12.114   5.712
  264DOPC   C4B 2436  18.749  11.884   5.802
  265DOPC   NC3 2437   7.859  10.434   3.532
  265DOPC   PO4 2438   7.589  10.804   3.562
  265DOPC   GL1 2439   7.669  10.644   4.002
  265DOPC   GL2 2440   7.709  10.944   4.212
  265DOPC   C1A 2441   7.639  10.464   4.422
  265DOPC   D2A 2442   7.789  10.434   4.852
  265DOPC   C3A 2443   7.599  10.684   5.162
  265DOPC   C4A 2444   7.469  10.724   5.532
  265DOPC   C1B 2445   7.349  10.854   4.442
  265DOPC   D2B 2446   7.009  11.174   4.312
  265DOPC   C3B 2447   6.609  11.204   4.472
  265DOPC   C4B 2448   6.489  11.164   4.842
  266DOPC   NC3 2449  22.039   0.344   7.432
  266DOPC   PO4 2450  21.969   0.764   7.242
  266DOPC   GL1 2451  21.739   0.684   6.852
  266DOPC   GL2 2452  21.849   0.374   6.842
  266DOPC   C1A 2453  21.879   0.774   6.452
  266DOPC   D2A 2454  21.779   0.914   6.082
  266DOPC   C3A 2455  21.899   0.884   5.652
  266DOPC   C4A 2456  21.839   1.134   5.212
  266DOPC   C1B 2457  21.549   0.214   6.492
  266DOPC   D2B 2458  21.679  -0.036   6.072
  266DOPC   C3B 2459  21.429   0.104   5.792
  266DOPC   C4B 2460  21.329   0.134   5.442
  267DOPC   NC3 2461  14.089  18.014   4.142
  267DOPC   PO4 2462  13.889  17.644   4.402
  267DOPC   GL1 2463  14.119  17.624   4.852
  267DOPC   GL2 2464  14.309  17.464   4.982
  267DOPC   C1A 2465  13.919  17.784   5.262
  267DOPC   D2A 2466  13.909  17.804   5.682
  267DOPC   C3A 2467  14.129  18.184   5.882
  267DOPC   C4A 2468  14.599  18.364   5.982
  267DOPC   C1B 2469  14.359  17.354   5.352
  267DOPC   D2B 2470  14.439  17.254   5.822
  267DOPC   C3B 2471  14.299  17.154   6.112
  267DOPC   C4B 2472  14.449  17.344   6.442
  268DOPC   NC3 2473  25.079   7.664   6.872
  268DOPC   PO4 2474  24.869   7.994   6.952
  268DOPC   GL1 2475  25.009   8.034   6.512
  268DOPC   GL2 2476  25.129   8.154   6.352
  268DOPC   C1A 2477  25.049   7.784   6.082
  268DOPC   D2A 2478  24.779   7.934   5.692
  268DOPC   C3A 2479  24.949   7.984   5.392
  268DOPC   C4A 2480  25.059   7.684   5.202
  268DOPC   C1B 2481  25.059   8.244   5.922
  268DOPC   D2B 2482  24.669   8.434   5.752
  268DOPC   C3B 2483  24.539   8.514   5.342
  268DOPC   C4B 2484  24.159   8.744   5.142
  269DOPC   NC3 2485  14.749   6.614   4.202
  269DOPC   PO4 2486  14.409   6.694   4.412
  269DOPC   GL1 2487  14.359   6.554   4.852
  269DOPC   GL2 2488  14.069   6.624   5.022
  269DOPC   C1A 2489  14.559   6.704   5.132
  269DOPC   D2A 2490  14.919   6.844   5.462
  269DOPC   C3A 2491  14.889   6.914   5.922
  269DOPC   C4A 2492  15.029   7.244   6.282
  269DOPC   C1B 2493  13.729   6.454   5.082
  269DOPC   D2B 2494  13.249   6.554   4.922
  269DOPC   C3B 2495  13.009   6.354   5.312
  269DOPC   C4B 2496  12.919   6.504   5.682
  270DOPC   NC3 2497   6.359  20.514   4.332
  270DOPC   PO4 2498   5.989  20.814   4.252
  270DOPC   GL1 2499   6.049  21.044   4.622
  270DOPC   GL2 2500   6.229  20.864   4.742
  270DOPC   C1A 2501   5.909  21.411   4.882
  270DOPC   D2A 2502   5.729  21.491   5.262
  270DOPC   C3A 2503   5.709  21.931   5.442
  270DOPC   C4A 2504   5.529  22.251   5.802
  270DOPC   C1B 2505   6.439  20.714   5.102
  270DOPC   D2B 2506   6.329  20.774   5.542
  270DOPC   C3B 2507   6.089  20.764   5.712
  270DOPC   C4B 2508   5.829  20.574   5.792
  271DOPC   NC3 2509   4.139   1.364   7.832
  271DOPC   PO4 2510   4.559   1.144   7.672
  271DOPC   GL1 2511   4.619   1.034   7.262
  271DOPC   GL2 2512   4.729   0.694   7.222
  271DOPC   C1A 2513   4.659   1.244   6.812
  271DOPC   D2A 2514   4.829   1.604   6.592
  271DOPC   C3A 2515   5.189   1.714   6.662
  271DOPC   C4A 2516   5.539   1.694   6.942
  271DOPC   C1B 2517   4.999   0.654   6.942
  271DOPC   D2B 2518   5.379   0.674   6.792
  271DOPC   C3B 2519   5.629   0.924   6.412
  271DOPC   C4B 2520   5.609   1.274   6.022
  272DOPC   NC3 2521  14.519  10.794   8.612
  272DOPC   PO4 2522  14.749  10.544   8.722
  272DOPC   GL1 2523  14.879  10.434   8.422
  272DOPC   GL2 2524  14.489  10.394   8.262
  272DOPC   C1A 2525  15.019  10.584   8.062
  272DOPC   D2A 2526  15.319  10.564   7.702
  272DOPC   C3A 2527  15.179  10.934   7.412
  272DOPC   C4A 2528  14.839  10.924   7.232
  272DOPC   C1B 2529  14.489  10.454   7.772
  272DOPC   D2B 2530  14.329  10.844   7.612
  272DOPC   C3B 2531  14.199  10.994   7.202
  272DOPC   C4B 2532  14.169  11.214   6.842
  273DOPC   NC3 2533  22.309   6.824   7.522
  273DOPC   PO4 2534  22.409   6.514   7.252
  273DOPC   GL1 2535  22.569   6.404   6.862
  273DOPC   GL2 2536  22.699   6.694   6.742
  273DOPC   C1A 2537  22.529   6.194   6.392
  273DOPC   D2A 2538  22.499   6.334   5.932
  273DOPC   C3A 2539  22.619   6.364   5.572
  273DOPC   C4A 2540  22.529   6.714   5.302
  273DOPC   C1B 2541  22.959   6.504   6.322
  273DOPC   D2B 2542  23.039   6.294   5.922
  273DOPC   C3B 2543  23.389   6.274   5.722
  273DOPC   C4B 2544  23.569   6.084   5.442
  274DOPC   NC3 2545   6.239  11.444   7.302
  274DOPC   PO4 2546   6.339  10.964   7.402
  274DOPC   GL1 2547   6.319  11.024   6.892
  274DOPC   GL2 2548   6.519  10.814   6.742
  274DOPC   C1A 2549   6.209  11.294   6.592
  274DOPC   D2A 2550   5.839  11.524   6.422
  274DOPC   C3A 2551   6.019  11.754   6.062
  274DOPC   C4A 2552   6.199  11.734   5.602
  274DOPC   C1B 2553   6.729  11.184   6.652
  274DOPC   D2B 2554   6.839  11.474   6.392
  274DOPC   C3B 2555   6.959  11.294   6.112
  274DOPC   C4B 2556   6.839  10.874   5.862
  275DOPC   NC3 2557  18.499  17.104   7.432
  275DOPC   PO4 2558  18.489  16.694   7.372
  275DOPC   GL1 2559  18.839  16.644   7.032
  275DOPC   GL2 2560  19.139  16.594   7.112
  275DOPC   C1A 2561  18.679  16.564   6.702
  275DOPC   D2A 2562  18.679  16.764   6.302
  275DOPC   C3A 2563  18.979  16.564   6.082
  275DOPC   C4A 2564  19.019  16.594   5.642
  275DOPC   C1B 2565  18.939  16.164   6.912
  275DOPC   D2B 2566  19.109  15.924   6.462
  275DOPC   C3B 2567  18.679  15.894   6.202
  275DOPC   C4B 2568  18.609  16.244   6.292
  276DOPC   NC3 2569  24.959  22.971   7.802
  276DOPC   PO4 2570  24.639  22.651   7.782
  276DOPC   GL1 2571  24.629  22.731   7.362
  276DOPC   GL2 2572  24.879  22.931   7.282
  276DOPC   C1A 2573  24.339  23.051   7.202
  276DOPC   D2A 2574  24.289  23.151   6.742
  276DOPC   C3A 2575  24.389  22.771   6.492
  276DOPC   C4A 2576  24.279  22.391   6.212
  276DOPC   C1B 2577  24.759  23.051   6.812
  276DOPC   D2B 2578  24.719  23.081   6.382
  276DOPC   C3B 2579  24.359  23.171   6.102
  276DOPC   C4B 2580  24.029  22.881   6.122
  277DOPC   NC3 2581   4.889  19.114   7.882
  277DOPC   PO4 2582   4.829  18.714   8.082
  277DOPC   GL1 2583   4.799  18.564   7.732
  277DOPC   GL2 2584   4.839  18.804   7.462
  277DOPC   C1A 2585   4.699  18.304   7.392
  277DOPC   D2A 2586   4.359  18.024   7.132
  277DOPC   C3A 2587   4.319  17.904   6.722
  277DOPC   C4A 2588   4.599  17.844   6.492
  277DOPC   C1B 2589   4.809  18.764   7.052
  277DOPC   D2B 2590   4.969  19.104   6.722
  277DOPC   C3B 2591   5.099  19.274   6.302
  277DOPC   C4B 2592   5.059  19.534   5.932
  278DOPC   NC3 2593   8.679   8.614   7.982
  278DOPC   PO4 2594   9.029   8.334   8.112
  278DOPC   GL1 2595   9.049   8.214   7.612
  278DOPC   GL2 2596   8.859   8.474   7.522
  278DOPC   C1A 2597   9.309   8.264   7.182
  278DOPC   D2A 2598   9.699   8.144   6.982
  278DOPC   C3A 2599   9.759   8.074   6.622
  278DOPC   C4A 2600   9.479   8.484   6.442
  278DOPC   C1B 2601   8.959   8.774   7.242
  278DOPC   D2B 2602   9.179   9.204   7.122
  278DOPC   C3B 2603   9.039   9.404   6.732
  278DOPC   C4B 2604   8.839   9.254   6.332
  279DOPC   NC3 2605  19.629  13.084   7.842
  279DOPC   PO4 2606  20.039  12.984   7.792
  279DOPC   GL1 2607  20.229  13.014   7.332
  279DOPC   GL2 2608  20.209  12.684   7.342
  279DOPC   C1A 2609  19.919  13.064   7.002
  279DOPC   D2A 2610  19.849  13.264   6.582
  279DOPC   C3A 2611  19.879  13.004   6.152
  279DOPC   C4A 2612  19.989  12.654   5.902
  279DOPC   C1B 2613  19.979  12.534   7.052
  279DOPC   D2B 2614  19.819  12.694   6.622
  279DOPC   C3B 2615  19.729  12.494   6.302
  279DOPC   C4B 2616  19.529  12.304   5.952
  280DOPC   NC3 2617   2.519   2.804   7.202
  280DOPC   PO4 2618   2.359   3.204   7.082
  280DOPC   GL1 2619   2.449   2.894   6.612
  280DOPC   GL2 2620   2.169   2.834   6.422
  280DOPC   C1A 2621   2.849   2.824   6.272
  280DOPC   D2A 2622   3.179   3.174   6.182
  280DOPC   C3A 2623   3.139   3.514   5.852
  280DOPC   C4A 2624   3.219   3.914   5.902
  280DOPC   C1B 2625   2.399   2.734   6.002
  280DOPC   D2B 2626   2.719   2.444   6.022
  280DOPC   C3B 2627   2.899   2.164   5.742
  280DOPC   C4B 2628   3.169   2.044   5.412
  281DOPC   NC3 2629  13.889  20.454   8.212
  281DOPC   PO4 2630  14.179  20.344   8.002
  281DOPC   GL1 2631  14.149  20.504   7.672
  281DOPC   GL2 2632  14.259  20.644   7.412
  281DOPC   C1A 2633  13.839  20.494   7.322
  281DOPC   D2A 2634  13.539  20.234   7.122
  281DOPC   C3A 2635  13.719  20.094   6.792
  281DOPC   C4A 2636  13.999  20.244   6.552
  281DOPC   C1B 2637  14.619  20.554   7.092
  281DOPC   D2B 2638  14.699  20.264   6.872
  281DOPC   C3B 2639  14.499  20.314   6.512
  281DOPC   C4B 2640  14.459  20.774   6.452
  282DOPC   NC3 2641  22.159  15.004   3.322
  282DOPC   PO4 2642  21.989  15.184   3.822
  282DOPC   GL1 2643  22.079  15.594   4.122
  282DOPC   GL2 2644  21.759  15.844   4.102
  282DOPC   C1A 2645  22.289  15.834   4.382
  282DOPC   D2A 2646  22.659  15.874   4.512
  282DOPC   C3A 2647  22.759  15.864   5.012
  282DOPC   C4A 2648  22.709  15.524   5.312
  282DOPC   C1B 2649  21.789  15.884   4.572
  282DOPC   D2B 2650  21.769  15.654   4.932
  282DOPC   C3B 2651  21.959  15.914   5.212
  282DOPC   C4B 2652  22.399  16.004   5.372
  283DOPC   NC3 2653  22.579  10.244   7.142
  283DOPC   PO4 2654  22.339   9.964   7.262
  283DOPC   GL1 2655  22.129  10.134   6.832
  283DOPC   GL2 2656  22.379  10.334   6.662
  283DOPC   C1A 2657  21.799  10.224   6.662
  283DOPC   D2A 2658  21.619  10.574   6.442
  283DOPC   C3A 2659  21.249  10.564   6.172
  283DOPC   C4A 2660  20.909  10.614   5.862
  283DOPC   C1B 2661  22.489  10.414   6.282
  283DOPC   D2B 2662  22.639  10.424   5.782
  283DOPC   C3B 2663  22.249  10.454   5.562
  283DOPC   C4B 2664  22.089  10.124   5.312
  284DOPC   NC3 2665  14.769   9.494   8.562
  284DOPC   PO4 2666  15.169   9.584   8.252
  284DOPC   GL1 2667  15.019   9.364   7.812
  284DOPC   GL2 2668  14.739   9.454   7.652
  284DOPC   C1A 2669  15.109   9.154   7.342
  284DOPC   D2A 2670  15.429   8.904   7.192
  284DOPC   C3A 2671  15.559   8.574   6.812
  284DOPC   C4A 2672  15.889   8.524   6.502
  284DOPC   C1B 2673  14.409   9.494   7.322
  284DOPC   D2B 2674  13.969   9.334   7.232
  284DOPC   C3B 2675  13.709   9.024   7.392
  284DOPC   C4B 2676  13.419   8.614   7.522
  285DOPC   NC3 2677   2.609   6.864   2.368
  285DOPC   PO4 2678   2.739   6.974   2.802
  285DOPC   GL1 2679   2.839   6.954   3.192
  285DOPC   GL2 2680   3.109   7.044   3.362
  285DOPC   C1A 2681   2.579   7.084   3.582
  285DOPC   D2A 2682   2.569   6.954   3.972
  285DOPC   C3A 2683   2.749   7.164   4.292
  285DOPC   C4A 2684   3.009   7.514   4.402
  285DOPC   C1B 2685   3.199   7.104   3.822
  285DOPC   D2B 2686   3.339   7.334   4.082
  285DOPC   C3B 2687   3.509   7.814   4.182
  285DOPC   C4B 2688   3.609   8.164   4.132
  286DOPC   NC3 2689  18.859  22.031   7.542
  286DOPC   PO4 2690  18.799  22.181   7.192
  286DOPC   GL1 2691  18.909  22.181   6.842
  286DOPC   GL2 2692  18.869  22.501   6.712
  286DOPC   C1A 2693  18.609  22.011   6.442
  286DOPC   D2A 2694  18.419  21.651   6.232
  286DOPC   C3A 2695  18.219  21.561   5.792
  286DOPC   C4A 2696  18.269  21.531   5.422
  286DOPC   C1B 2697  19.169  22.501   6.502
  286DOPC   D2B 2698  19.159  22.281   6.072
  286DOPC   C3B 2699  19.479  22.271   5.822
  286DOPC   C4B 2700  19.719  22.021   5.662
  287DOPC   NC3 2701  16.189   8.794   8.332
  287DOPC   PO4 2702  16.409   8.534   8.152
  287DOPC   GL1 2703  16.479   8.364   7.712
  287DOPC   GL2 2704  16.159   8.124   7.592
  287DOPC   C1A 2705  16.709   8.454   7.292
  287DOPC   D2A 2706  16.769   8.374   6.962
  287DOPC   C3A 2707  16.609   8.114   6.612
  287DOPC   C4A 2708  16.529   7.684   6.482
  287DOPC   C1B 2709  15.839   8.054   7.242
  287DOPC   D2B 2710  15.649   8.074   6.812
  287DOPC   C3B 2711  15.719   7.974   6.342
  287DOPC   C4B 2712  15.759   7.944   5.822
  288DOPC   NC3 2713   2.599  16.674   7.972
  288DOPC   PO4 2714   2.699  16.934   7.532
  288DOPC   GL1 2715   2.549  16.854   7.122
  288DOPC   GL2 2716   2.349  17.024   7.152
  288DOPC   C1A 2717   2.309  16.784   6.712
  288DOPC   D2A 2718   2.409  16.734   6.272
  288DOPC   C3A 2719   2.929  16.864   6.002
  288DOPC   C4A 2720   3.379  16.754   5.902
  288DOPC   C1B 2721   2.709  17.354   6.882
  288DOPC   D2B 2722   2.859  17.614   6.572
  288DOPC   C3B 2723   2.749  17.564   6.192
  288DOPC   C4B 2724   2.869  17.534   5.702
  289DOPC   NC3 2725  15.809   4.204   7.982
  289DOPC   PO4 2726  15.489   3.954   7.872
  289DOPC   GL1 2727  15.819   3.924   7.512
  289DOPC   GL2 2728  15.629   4.174   7.412
  289DOPC   C1A 2729  16.079   3.744   7.182
  289DOPC   D2A 2730  16.149   3.584   6.802
  289DOPC   C3A 2731  15.959   3.914   6.482
  289DOPC   C4A 2732  15.839   4.304   6.482
  289DOPC   C1B 2733  15.399   3.874   7.192
  289DOPC   D2B 2734  15.219   3.994   6.872
  289DOPC   C3B 2735  15.439   3.944   6.472
  289DOPC   C4B 2736  15.719   4.074   6.062
  290DOPC   NC3 2737  16.259   5.704   8.402
  290DOPC   PO4 2738  16.479   5.674   8.142
  290DOPC   GL1 2739  16.529   5.984   7.812
  290DOPC   GL2 2740  16.269   6.134   7.632
  290DOPC   C1A 2741  16.639   6.194   7.362
  290DOPC   D2A 2742  16.769   6.304   6.982
  290DOPC   C3A 2743  16.609   6.284   6.522
  290DOPC   C4A 2744  16.619   6.284   6.122
  290DOPC   C1B 2745  16.209   5.824   7.402
  290DOPC   D2B 2746  15.959   5.534   7.222
  290DOPC   C3B 2747  15.459   5.644   7.202
  290DOPC   C4B 2748  15.009   5.904   7.232
  291DOPC   NC3 2749  13.569  21.781   4.512
  291DOPC   PO4 2750  13.769  22.111   4.512
  291DOPC   GL1 2751  13.749  21.961   4.952
  291DOPC   GL2 2752  13.549  21.681   5.052
  291DOPC   C1A 2753  13.989  22.091   5.332
  291DOPC   D2A 2754  14.299  22.431   5.442
  291DOPC   C3A 2755  14.079  22.411   5.852
  291DOPC   C4A 2756  14.339  22.451   6.252
  291DOPC   C1B 2757  13.739  21.651   5.452
  291DOPC   D2B 2758  13.749  21.741   5.832
  291DOPC   C3B 2759  13.349  21.931   5.942
  291DOPC   C4B 2760  13.039  22.361   6.012
  292DOPC   NC3 2761  18.099  17.724   7.942
  292DOPC   PO4 2762  18.359  17.554   7.622
  292DOPC   GL1 2763  18.209  17.454   7.192
  292DOPC   GL2 2764  17.939  17.704   7.052
  292DOPC   C1A 2765  18.339  17.454   6.782
  292DOPC   D2A 2766  18.389  17.464   6.332
  292DOPC   C3A 2767  18.679  17.654   6.022
  292DOPC   C4A 2768  19.169  17.564   6.042
  292DOPC   C1B 2769  17.549  17.694   6.812
  292DOPC   D2B 2770  17.159  17.524   6.652
  292DOPC   C3B 2771  16.769  17.794   6.602
  292DOPC   C4B 2772  16.359  17.864   6.792
  293DOPC   NC3 2773  15.509   0.844   7.962
  293DOPC   PO4 2774  15.199   0.474   7.812
  293DOPC   GL1 2775  15.369   0.644   7.472
  293DOPC   GL2 2776  15.369   0.994   7.432
  293DOPC   C1A 2777  15.679   0.684   7.112
  293DOPC   D2A 2778  16.079   0.844   6.962
  293DOPC   C3A 2779  16.029   1.044   6.482
  293DOPC   C4A 2780  15.899   1.364   6.192
  293DOPC   C1B 2781  15.279   0.964   7.062
  293DOPC   D2B 2782  15.029   0.844   6.742
  293DOPC   C3B 2783  14.829   0.494   6.592
  293DOPC   C4B 2784  14.739   0.114   6.782
  294DOPC   NC3 2785   5.709  17.434   8.042
  294DOPC   PO4 2786   5.409  17.214   7.822
  294DOPC   GL1 2787   5.719  17.174   7.502
  294DOPC   GL2 2788   5.929  16.924   7.482
  294DOPC   C1A 2789   5.859  17.184   7.082
  294DOPC   D2A 2790   6.199  17.324   6.832
  294DOPC   C3A 2791   6.229  17.254   6.472
  294DOPC   C4A 2792   6.559  17.544   6.262
  294DOPC   C1B 2793   6.159  16.544   7.272
  294DOPC   D2B 2794   6.269  16.244   7.052
  294DOPC   C3B 2795   6.359  16.044   6.722
  294DOPC   C4B 2796   6.489  15.634   6.802
  295DOPC   NC3 2797  19.279  14.524   7.682
  295DOPC   PO4 2798  19.549  14.694   7.412
  295DOPC   GL1 2799  19.509  14.564   6.972
  295DOPC   GL2 2800  19.679  14.374   6.962
  295DOPC   C1A 2801  19.219  14.464   6.612
  295DOPC   D2A 2802  18.999  14.724   6.322
  295DOPC   C3A 2803  19.299  15.064   6.322
  295DOPC   C4A 2804  19.719  15.344   6.442
  295DOPC   C1B 2805  19.579  14.064   6.622
  295DOPC   D2B 2806  19.509  13.674   6.392
  295DOPC   C3B 2807  19.429  13.434   6.072
  295DOPC   C4B 2808  19.609  13.144   5.732
  296DOPC   NC3 2809  15.359   8.144   8.492
  296DOPC   PO4 2810  15.199   7.824   8.282
  296DOPC   GL1 2811  15.159   7.764   7.902
  296DOPC   GL2 2812  15.159   7.354   7.822
  296DOPC   C1A 2813  15.099   7.764   7.382
  296DOPC   D2A 2814  15.029   7.654   7.022
  296DOPC   C3A 2815  15.079   8.054   6.782
  296DOPC   C4A 2816  14.859   8.124   6.472
  296DOPC   C1B 2817  15.279   7.324   7.382
  296DOPC   D2B 2818  15.209   7.184   6.842
  296DOPC   C3B 2819  15.179   6.624   6.582
  296DOPC   C4B 2820  15.239   6.204   6.452
  297DOPC   NC3 2821  12.569  21.931   3.902
  297DOPC   PO4 2822  12.719  22.181   4.252
  297DOPC   GL1 2823  12.619  22.071   4.762
  297DOPC   GL2 2824  12.299  22.031   4.882
  297DOPC   C1A 2825  12.809  21.851   5.032
  297DOPC   D2A 2826  13.089  21.671   5.252
  297DOPC   C3A 2827  13.229  21.551   5.592
  297DOPC   C4A 2828  13.449  21.431   6.022
  297DOPC   C1B 2829  12.309  21.971   5.282
  297DOPC   D2B 2830  12.599  22.071   5.632
  297DOPC   C3B 2831  13.009  22.061   5.602
  297DOPC   C4B 2832  13.409  22.101   5.332
  298DOPC   NC3 2833   9.429   9.394  10.602
  298DOPC   PO4 2834   9.069   9.414  10.812
  298DOPC   GL1 2835   9.179   9.274  11.242
  298DOPC   GL2 2836   8.879   9.274  11.402
  298DOPC   C1A 2837   9.309   9.364  11.612
  298DOPC   D2A 2838   9.369   9.194  12.082
  298DOPC   C3A 2839   9.499   9.304  12.532
  298DOPC   C4A 2840   9.579   9.294  12.962
  298DOPC   C1B 2841   9.009   9.054  11.762
  298DOPC   D2B 2842   9.129   8.734  12.052
  298DOPC   C3B 2843   9.379   8.404  12.172
  298DOPC   C4B 2844   9.289   8.014  12.372
  299DOPC   NC3 2845   6.049   8.514   7.322
  299DOPC   PO4 2846   6.419   8.574   7.432
  299DOPC   GL1 2847   6.419   8.444   6.992
  299DOPC   GL2 2848   6.099   8.344   6.872
  299DOPC   C1A 2849   6.539   8.284   6.612
  299DOPC   D2A 2850   6.739   8.384   6.202
  299DOPC   C3A 2851   6.719   8.434   5.802
  299DOPC   C4A 2852   6.619   8.724   5.612
  299DOPC   C1B 2853   6.109   8.114   6.442
  299DOPC   D2B 2854   5.869   8.084   6.102
  299DOPC   C3B 2855   5.829   8.494   5.972
  299DOPC   C4B 2856   5.649   8.624   5.582
  300DOPC   NC3 2857   2.969   6.434   3.052
  300DOPC   PO4 2858   3.229   6.044   3.292
  300DOPC   GL1 2859   3.289   6.274   3.582
  300DOPC   GL2 2860   3.279   6.604   3.452
  300DOPC   C1A 2861   3.359   6.594   3.952
  300DOPC   D2A 2862   3.139   6.804   4.272
  300DOPC   C3A 2863   3.129   6.494   4.722
  300DOPC   C4A 2864   2.979   6.264   5.042
  300DOPC   C1B 2865   2.889   6.684   3.672
  300DOPC   D2B 2866   2.769   6.514   4.162
  300DOPC   C3B 2867   3.069   6.274   4.312
  300DOPC   C4B 2868   3.339   6.134   4.092
  301DOPC   NC3 2869  16.949   8.794   8.182
  301DOPC   PO4 2870  16.889   9.194   8.012
  301DOPC   GL1 2871  16.619   9.034   7.762
  301DOPC   GL2 2872  16.869   8.814   7.622
  301DOPC   C1A 2873  16.429   8.834   7.422
  301DOPC   D2A 2874  16.509   8.874   6.972
  301DOPC   C3A 2875  16.359   8.634   6.602
  301DOPC   C4A 2876  16.329   8.374   6.202
  301DOPC   C1B 2877  17.039   9.004   7.252
  301DOPC   D2B 2878  17.199   9.014   6.832
  301DOPC   C3B 2879  17.219   8.614   6.632
  301DOPC   C4B 2880  17.519   8.384   6.472
  302DOPC   NC3 2881  20.599   3.384   3.422
  302DOPC   PO4 2882  20.429   3.634   3.702
  302DOPC   GL1 2883  20.469   3.804   4.152
  302DOPC   GL2 2884  20.489   4.084   4.302
  302DOPC   C1A 2885  20.269   3.684   4.532
  302DOPC   D2A 2886  20.479   3.424   4.862
  302DOPC   C3A 2887  20.319   3.384   5.242
  302DOPC   C4A 2888  20.219   3.244   5.602
  302DOPC   C1B 2889  20.049   4.094   4.402
  302DOPC   D2B 2890  19.659   3.984   4.652
  302DOPC   C3B 2891  19.349   4.054   5.002
  302DOPC   C4B 2892  18.889   3.964   5.002
  303DOPC   NC3 2893   4.649  21.421   8.052
  303DOPC   PO4 2894   4.729  21.731   7.902
  303DOPC   GL1 2895   4.669  21.741   7.482
  303DOPC   GL2 2896   4.689  21.354   7.482
  303DOPC   C1A 2897   4.699  21.761   7.082
  303DOPC   D2A 2898   4.499  21.701   6.652
  303DOPC   C3A 2899   4.589  21.861   6.392
  303DOPC   C4A 2900   4.569  22.131   6.072
  303DOPC   C1B 2901   5.069  21.451   7.242
  303DOPC   D2B 2902   5.279  21.244   6.892
  303DOPC   C3B 2903   5.119  21.144   6.562
  303DOPC   C4B 2904   5.129  20.834   6.302
  304DOPC   NC3 2905  23.339  25.501   8.012
  304DOPC   PO4 2906  23.159  25.371   7.672
  304DOPC   GL1 2907  23.069  25.331   7.252
  304DOPC   GL2 2908  23.299  25.271   7.162
  304DOPC   C1A 2909  22.989  24.971   6.952
  304DOPC   D2A 2910  22.989  25.071   6.542
  304DOPC   C3A 2911  23.149  24.841   6.312
  304DOPC   C4A 2912  23.529  24.691   6.442
  304DOPC   C1B 2913  23.409  25.471   6.812
  304DOPC   D2B 2914  23.379  25.371   6.452
  304DOPC   C3B 2915  23.039  25.291   6.112
  304DOPC   C4B 2916  22.879  25.551   5.842
  305DOPC   NC3 2917   5.529   5.654   3.612
  305DOPC   PO4 2918   5.169   5.384   3.512
  305DOPC   GL1 2919   4.879   5.464   3.782
  305DOPC   GL2 2920   4.659   5.684   3.912
  305DOPC   C1A 2921   4.999   5.444   4.252
  305DOPC   D2A 2922   5.279   5.404   4.472
  305DOPC   C3A 2923   5.329   5.554   4.902
  305DOPC   C4A 2924   5.569   5.794   5.252
  305DOPC   C1B 2925   4.669   5.984   4.342
  305DOPC   D2B 2926   4.569   6.304   4.662
  305DOPC   C3B 2927   4.639   6.274   5.082
  305DOPC   C4B 2928   4.569   6.154   5.512
  306DOPC   NC3 2929   5.149  22.631   8.192
  306DOPC   PO4 2930   5.349  23.061   8.122
  306DOPC   GL1 2931   5.329  22.801   7.722
  306DOPC   GL2 2932   5.629  22.651   7.702
  306DOPC   C1A 2933   5.149  22.471   7.472
  306DOPC   D2A 2934   4.749  22.251   7.332
  306DOPC   C3A 2935   4.609  22.191   6.902
  306DOPC   C4A 2936   4.919  22.171   6.642
  306DOPC   C1B 2937   5.769  22.721   7.322
  306DOPC   D2B 2938   5.919  22.801   6.922
  306DOPC   C3B 2939   5.559  22.681   6.632
  306DOPC   C4B 2940   5.129  22.641   6.462
  307DOPC   NC3 2941   4.769  14.554   7.072
  307DOPC   PO4 2942   4.309  14.834   7.132
  307DOPC   GL1 2943   4.179  14.794   6.732
  307DOPC   GL2 2944   3.959  14.524   6.672
  307DOPC   C1A 2945   4.249  14.684   6.302
  307DOPC   D2A 2946   4.149  14.784   5.872
  307DOPC   C3A 2947   4.319  14.564   5.592
  307DOPC   C4A 2948   4.189  14.034   5.572
  307DOPC   C1B 2949   3.779  14.074   6.552
  307DOPC   D2B 2950   3.859  13.904   6.082
  307DOPC   C3B 2951   4.109  13.614   6.022
  307DOPC   C4B 2952   4.609  13.704   5.922
  308DOPC   NC3 2953   7.919   0.844  10.982
  308DOPC   PO4 2954   7.689   1.224  11.062
  308DOPC   GL1 2955   7.719   1.524  11.322
  308DOPC   GL2 2956   7.829   1.524  11.682
  308DOPC   C1A 2957   7.419   1.764  11.492
  308DOPC   D2A 2958   7.369   2.134  11.682
  308DOPC   C3A 2959   7.379   2.584  11.482
  308DOPC   C4A 2960   7.259   3.014  11.662
  308DOPC   C1B 2961   7.719   1.694  12.042
  308DOPC   D2B 2962   7.849   2.054  12.372
  308DOPC   C3B 2963   7.489   2.214  12.562
  308DOPC   C4B 2964   7.129   2.394  12.592
  309DOPC   NC3 2965  13.729   6.064   4.262
  309DOPC   PO4 2966  13.949   6.344   4.502
  309DOPC   GL1 2967  14.129   6.134   4.742
  309DOPC   GL2 2968  13.809   6.004   4.882
  309DOPC   C1A 2969  14.239   6.144   5.122
  309DOPC   D2A 2970  14.639   6.244   5.402
  309DOPC   C3A 2971  14.909   6.374   5.722
  309DOPC   C4A 2972  15.059   6.484   6.092
  309DOPC   C1B 2973  13.519   6.054   5.252
  309DOPC   D2B 2974  13.459   6.454   5.532
  309DOPC   C3B 2975  13.689   6.534   5.862
  309DOPC   C4B 2976  14.039   6.884   6.062
  310DOPC   NC3 2977   8.379   1.014   8.302
  310DOPC   PO4 2978   8.649   1.174   7.992
  310DOPC   GL1 2979   8.799   1.074   7.552
  310DOPC   GL2 2980   8.619   1.214   7.292
  310DOPC   C1A 2981   8.839   0.764   7.282
  310DOPC   D2A 2982   8.749   0.794   6.792
  310DOPC   C3A 2983   9.069   0.474   6.622
  310DOPC   C4A 2984   9.099   0.214   6.332
  310DOPC   C1B 2985   8.389   1.184   7.022
  310DOPC   D2B 2986   8.019   1.234   6.612
  310DOPC   C3B 2987   7.999   1.344   6.272
  310DOPC   C4B 2988   7.889   1.294   5.732
  311DOPC   NC3 2989   5.549  11.994   7.302
  311DOPC   PO4 2990   5.709  12.394   7.142
  311DOPC   GL1 2991   5.829  12.594   6.802
  311DOPC   GL2 2992   5.999  12.844   6.852
  311DOPC   C1A 2993   5.819  12.764   6.352
  311DOPC   D2A 2994   6.099  12.844   6.072
  311DOPC   C3A 2995   6.549  12.604   6.152
  311DOPC   C4A 2996   7.029  12.374   6.252
  311DOPC   C1B 2997   6.259  13.094   6.522
  311DOPC   D2B 2998   6.339  13.304   6.082
  311DOPC   C3B 2999   6.609  13.614   6.032
  311DOPC   C4B 3000   6.989  13.564   6.092
  312DOPC   NC3 3001  15.089   7.704   4.122
  312DOPC   PO4 3002  15.219   7.864   4.422
  312DOPC   GL1 3003  14.909   7.824   4.852
  312DOPC   GL2 3004  14.789   7.534   5.032
  312DOPC   C1A 3005  14.859   7.984   5.302
  312DOPC   D2A 3006  14.869   8.024   5.762
  312DOPC   C3A 3007  15.009   8.384   6.032
  312DOPC   C4A 3008  15.269   8.424   6.462
  312DOPC   C1B 3009  15.049   7.344   5.442
  312DOPC   D2B 3010  15.089   7.434   5.802
  312DOPC   C3B 3011  15.409   7.484   5.972
  312DOPC   C4B 3012  15.749   7.464   6.262
  313DOPC   NC3 3013  21.989   1.834   8.232
  313DOPC   PO4 3014  22.099   1.634   7.802
  313DOPC   GL1 3015  21.909   1.334   7.472
  313DOPC   GL2 3016  21.699   1.634   7.472
  313DOPC   C1A 3017  21.889   1.354   7.022
  313DOPC   D2A 3018  21.909   1.254   6.552
  313DOPC   C3A 3019  21.729   1.584   6.222
  313DOPC   C4A 3020  21.349   1.534   5.932
  313DOPC   C1B 3021  21.779   1.924   7.102
  313DOPC   D2B 3022  21.629   2.344   6.922
  313DOPC   C3B 3023  21.879   2.374   6.562
  313DOPC   C4B 3024  21.959   2.534   6.202
  314DOPC   NC3 3025   4.759  13.244   3.292
  314DOPC   PO4 3026   4.389  13.384   3.562
  314DOPC   GL1 3027   4.189  13.484   3.982
  314DOPC   GL2 3028   4.489  13.484   4.112
  314DOPC   C1A 3029   4.069  13.554   4.372
  314DOPC   D2A 3030   3.919  13.764   4.792
  314DOPC   C3A 3031   4.109  13.774   5.112
  314DOPC   C4A 3032   4.399  13.564   5.442
  314DOPC   C1B 3033   4.589  13.754   4.522
  314DOPC   D2B 3034   4.719  13.634   4.952
  314DOPC   C3B 3035   4.879  13.354   5.142
  314DOPC   C4B 3036   4.639  13.044   5.532
  315DOPC   NC3 3037  11.539   5.634   7.782
  315DOPC   PO4 3038  11.819   5.234   8.042
  315DOPC   GL1 3039  11.989   5.374   7.542
  315DOPC   GL2 3040  12.259   5.544   7.532
  315DOPC   C1A 3041  11.769   5.364   7.172
  315DOPC   D2A 3042  11.949   5.274   6.782
  315DOPC   C3A 3043  12.059   4.854   6.772
  315DOPC   C4A 3044  12.279   4.744   6.412
  315DOPC   C1B 3045  12.379   5.274   7.222
  315DOPC   D2B 3046  12.329   4.844   7.292
  315DOPC   C3B 3047  12.319   4.504   6.982
  315DOPC   C4B 3048  12.499   4.334   6.632
  316DOPC   NC3 3049  22.169  14.544   3.692
  316DOPC   PO4 3050  21.799  14.794   3.582
  316DOPC   GL1 3051  21.789  14.734   4.042
  316DOPC   GL2 3052  21.459  14.694   4.082
  316DOPC   C1A 3053  22.019  14.814   4.462
  316DOPC   D2A 3054  22.059  14.914   4.852
  316DOPC   C3A 3055  22.389  14.744   5.022
  316DOPC   C4A 3056  22.569  14.834   5.482
  316DOPC   C1B 3057  21.669  14.444   4.482
  316DOPC   D2B 3058  21.499  14.154   4.832
  316DOPC   C3B 3059  21.669  13.974   5.222
  316DOPC   C4B 3060  22.059  13.674   5.262
  317DOPC   NC3 3061  17.529  18.304   7.192
  317DOPC   PO4 3062  18.009  18.414   7.282
  317DOPC   GL1 3063  17.979  18.464   6.842
  317DOPC   GL2 3064  17.889  18.164   6.822
  317DOPC   C1A 3065  18.039  18.544   6.482
  317DOPC   D2A 3066  18.259  18.474   6.062
  317DOPC   C3A 3067  17.939  18.174   5.952
  317DOPC   C4A 3068  17.509  18.234   5.822
  317DOPC   C1B 3069  17.849  18.034   6.452
  317DOPC   D2B 3070  17.639  17.664   6.262
  317DOPC   C3B 3071  17.829  17.314   6.092
  317DOPC   C4B 3072  17.829  17.034   5.752
  318DOPC   NC3 3073  19.239   3.714   3.772
  318DOPC   PO4 3074  18.869   3.534   3.942
  318DOPC   GL1 3075  18.839   3.384   4.392
  318DOPC   GL2 3076  18.509   3.254   4.482
  318DOPC   C1A 3077  18.939   2.924   4.612
  318DOPC   D2A 3078  19.259   2.594   4.512
  318DOPC   C3A 3079  19.389   2.664   4.982
  318DOPC   C4A 3080  19.449   2.804   5.412
  318DOPC   C1B 3081  18.799   3.424   4.852
  318DOPC   D2B 3082  18.809   3.404   5.252
  318DOPC   C3B 3083  19.219   3.494   5.372
  318DOPC   C4B 3084  19.549   3.664   5.712
  319DOPC   NC3 3085   4.709   5.474   3.042
  319DOPC   PO4 3086   4.619   5.244   3.392
  319DOPC   GL1 3087   4.529   5.004   3.842
  319DOPC   GL2 3088   4.579   4.654   3.922
  319DOPC   C1A 3089   4.369   4.954   4.252
  319DOPC   D2A 3090   4.549   4.924   4.762
  319DOPC   C3A 3091   4.819   5.264   4.842
  319DOPC   C4A 3092   4.839   5.734   4.722
  319DOPC   C1B 3093   4.629   4.464   4.372
  319DOPC   D2B 3094   4.349   4.394   4.772
  319DOPC   C3B 3095   4.569   4.094   5.042
  319DOPC   C4B 3096   4.559   3.664   5.202
  320DOPC   NC3 3097  12.409   4.344   4.472
  320DOPC   PO4 3098  12.069   4.074   4.332
  320DOPC   GL1 3099  11.959   4.044   4.752
  320DOPC   GL2 3100  12.119   4.184   4.892
  320DOPC   C1A 3101  11.649   3.894   5.112
  320DOPC   D2A 3102  11.459   3.824   5.552
  320DOPC   C3A 3103  11.229   3.984   5.852
  320DOPC   C4A 3104  10.919   4.104   6.162
  320DOPC   C1B 3105  12.099   4.194   5.312
  320DOPC   D2B 3106  12.029   3.864   5.512
  320DOPC   C3B 3107  11.889   3.634   5.882
  320DOPC   C4B 3108  11.489   3.654   6.072
  321DOPC   NC3 3109   6.659   6.134   7.482
  321DOPC   PO4 3110   6.149   6.124   7.442
  321DOPC   GL1 3111   6.389   5.884   7.032
  321DOPC   GL2 3112   6.809   6.014   7.002
  321DOPC   C1A 3113   6.189   5.774   6.712
  321DOPC   D2A 3114   5.939   5.454   6.502
  321DOPC   C3A 3115   5.939   5.554   6.152
  321DOPC   C4A 3116   5.709   5.684   5.762
  321DOPC   C1B 3117   6.969   6.304   6.642
  321DOPC   D2B 3118   6.869   6.414   6.272
  321DOPC   C3B 3119   7.109   6.324   5.832
  321DOPC   C4B 3120   7.449   6.044   5.732
  322DOPC   NC3 3121  21.279   8.514   7.142
  322DOPC   PO4 3122  20.859   8.404   7.082
  322DOPC   GL1 3123  20.779   8.474   6.622
  322DOPC   GL2 3124  20.739   8.824   6.542
  322DOPC   C1A 3125  20.729   8.354   6.182
  322DOPC   D2A 3126  20.849   8.364   5.792
  322DOPC   C3A 3127  20.789   8.014   5.622
  322DOPC   C4A 3128  20.649   7.804   5.292
  322DOPC   C1B 3129  20.769   8.894   6.162
  322DOPC   D2B 3130  20.999   8.864   5.752
  322DOPC   C3B 3131  20.889   8.694   5.392
  322DOPC   C4B 3132  20.769   8.614   4.902
  323DOPC   NC3 3133  21.939  17.814   3.672
  323DOPC   PO4 3134  22.359  18.044   3.712
  323DOPC   GL1 3135  22.339  18.314   4.032
  323DOPC   GL2 3136  22.259  18.614   4.102
  323DOPC   C1A 3137  22.029  18.244   4.382
  323DOPC   D2A 3138  21.779  17.934   4.412
  323DOPC   C3A 3139  21.679  17.634   4.822
  323DOPC   C4A 3140  21.899  17.744   5.212
  323DOPC   C1B 3141  22.469  18.474   4.502
  323DOPC   D2B 3142  22.439  18.154   4.762
  323DOPC   C3B 3143  22.329  18.194   5.232
  323DOPC   C4B 3144  21.979  18.104   5.522
  324DOPC   NC3 3145  15.759  12.304   8.952
  324DOPC   PO4 3146  15.449  12.474   8.752
  324DOPC   GL1 3147  15.179  12.474   8.422
  324DOPC   GL2 3148  14.969  12.254   8.522
  324DOPC   C1A 3149  14.969  12.524   7.932
  324DOPC   D2A 3150  14.899  12.864   7.642
  324DOPC   C3A 3151  14.739  12.664   7.172
  324DOPC   C4A 3152  14.279  12.534   7.002
  324DOPC   C1B 3153  15.109  12.014   8.212
  324DOPC   D2B 3154  15.349  12.244   7.972
  324DOPC   C3B 3155  15.589  12.274   7.632
  324DOPC   C4B 3156  15.539  12.154   7.192
  325DOPC   NC3 3157   3.949  13.314   7.172
  325DOPC   PO4 3158   4.339  13.334   7.232
  325DOPC   GL1 3159   4.409  13.304   6.852
  325DOPC   GL2 3160   4.549  12.974   6.672
  325DOPC   C1A 3161   4.289  13.354   6.412
  325DOPC   D2A 3162   4.529  13.104   6.002
  325DOPC   C3A 3163   4.469  12.734   5.922
  325DOPC   C4A 3164   4.379  12.274   5.892
  325DOPC   C1B 3165   4.769  13.264   6.392
  325DOPC   D2B 3166   5.069  13.364   6.082
  325DOPC   C3B 3167   5.319  13.074   6.222
  325DOPC   C4B 3168   5.389  12.594   6.492
  326DOPC   NC3 3169  20.549  25.051   3.492
  326DOPC   PO4 3170  20.539  24.731   3.792
  326DOPC   GL1 3171  20.579  24.671   4.282
  326DOPC   GL2 3172  20.519  25.001   4.272
  326DOPC   C1A 3173  20.699  24.651   4.662
  326DOPC   D2A 3174  21.009  24.501   4.762
  326DOPC   C3A 3175  20.919  24.101   5.112
  326DOPC   C4A 3176  20.899  23.801   5.432
  326DOPC   C1B 3177  20.429  25.101   4.652
  326DOPC   D2B 3178  20.639  25.041   4.972
  326DOPC   C3B 3179  21.009  24.951   5.072
  326DOPC   C4B 3180  21.289  25.261   5.172
  327DOPC   NC3 3181   1.109  18.694   7.702
  327DOPC   PO4 3182   1.259  19.214   7.852
  327DOPC   GL1 3183   0.909  19.224   7.512
  327DOPC   GL2 3184   1.009  18.994   7.292
  327DOPC   C1A 3185   0.659  19.224   7.092
  327DOPC   D2A 3186   0.279  19.134   6.892
  327DOPC   C3A 3187  -0.089  19.324   6.642
  327DOPC   C4A 3188  -0.279  19.594   6.362
  327DOPC   C1B 3189   1.289  19.094   6.942
  327DOPC   D2B 3190   1.219  19.094   6.502
  327DOPC   C3B 3191   1.309  18.764   6.162
  327DOPC   C4B 3192   1.499  18.364   6.222
  328DOPC   NC3 3193   0.449  11.344   8.192
  328DOPC   PO4 3194   0.299  11.404   7.742
  328DOPC   GL1 3195   0.139  11.544   7.312
  328DOPC   GL2 3196   0.329  11.574   7.112
  328DOPC   C1A 3197  -0.229  11.414   7.122
  328DOPC   D2A 3198  -0.479  11.424   6.682
  328DOPC   C3A 3199  -0.579  11.184   6.382
  328DOPC   C4A 3200  -0.779  11.204   5.982
  328DOPC   C1B 3201   0.329  11.264   6.782
  328DOPC   D2B 3202   0.479  11.334   6.392
  328DOPC   C3B 3203   0.709  11.144   6.022
  328DOPC   C4B 3204   1.089  11.184   5.842
  329DOPC   NC3 3205  23.559  21.821   7.492
  329DOPC   PO4 3206  23.309  21.501   7.432
  329DOPC   GL1 3207  23.009  21.421   7.122
  329DOPC   GL2 3208  22.799  21.701   7.002
  329DOPC   C1A 3209  23.169  21.054   6.762
  329DOPC   D2A 3210  23.499  20.984   6.562
  329DOPC   C3A 3211  23.519  21.114   6.132
  329DOPC   C4A 3212  23.779  21.224   5.732
  329DOPC   C1B 3213  22.559  21.931   6.722
  329DOPC   D2B 3214  22.199  21.801   6.402
  329DOPC   C3B 3215  22.149  21.691   5.942
  329DOPC   C4B 3216  22.179  21.421   5.532
  330DOPC   NC3 3217   7.769  22.811   4.142
  330DOPC   PO4 3218   7.669  23.251   4.372
  330DOPC   GL1 3219   7.519  23.331   4.822
  330DOPC   GL2 3220   7.619  23.691   4.822
  330DOPC   C1A 3221   7.469  23.361   5.252
  330DOPC   D2A 3222   7.109  23.451   5.592
  330DOPC   C3A 3223   7.109  23.221   5.932
  330DOPC   C4A 3224   7.289  22.921   6.142
  330DOPC   C1B 3225   7.899  23.651   5.172
  330DOPC   D2B 3226   7.909  23.891   5.562
  330DOPC   C3B 3227   7.779  24.251   5.642
  330DOPC   C4B 3228   7.529  24.551   5.632
  331DOPC   NC3 3229  15.989  18.254   7.842
  331DOPC   PO4 3230  16.069  18.664   7.852
  331DOPC   GL1 3231  15.829  18.624   7.482
  331DOPC   GL2 3232  15.699  18.304   7.422
  331DOPC   C1A 3233  15.649  18.994   7.332
  331DOPC   D2A 3234  15.349  19.424   7.322
  331DOPC   C3A 3235  14.939  19.484   7.062
  331DOPC   C4A 3236  14.739  19.774   6.832
  331DOPC   C1B 3237  15.579  18.094   7.132
  331DOPC   D2B 3238  15.439  17.924   6.722
  331DOPC   C3B 3239  15.169  17.644   6.792
  331DOPC   C4B 3240  14.909  17.634   6.562
  332DOPC   NC3 3241   9.879  22.011   8.182
  332DOPC   PO4 3242   9.859  22.491   8.192
  332DOPC   GL1 3243   9.949  22.221   7.722
  332DOPC   GL2 3244   9.859  21.861   7.612
  332DOPC   C1A 3245  10.289  22.101   7.532
  332DOPC   D2A 3246  10.379  21.881   7.062
  332DOPC   C3A 3247  10.439  21.441   7.072
  332DOPC   C4A 3248  10.689  21.064   7.102
  332DOPC   C1B 3249   9.679  22.041   7.182
  332DOPC   D2B 3250   9.309  21.961   7.032
  332DOPC   C3B 3251   9.199  22.271   6.692
  332DOPC   C4B 3252   9.279  22.671   6.502
  333DOPC   NC3 3253  21.179   5.244   7.432
  333DOPC   PO4 3254  20.809   5.434   7.582
  333DOPC   GL1 3255  20.599   5.284   7.192
  333DOPC   GL2 3256  20.439   5.524   7.172
  333DOPC   C1A 3257  20.619   5.134   6.752
  333DOPC   D2A 3258  20.389   5.124   6.352
  333DOPC   C3A 3259  20.119   5.394   6.142
  333DOPC   C4A 3260  20.159   5.924   6.022
  333DOPC   C1B 3261  20.819   5.644   6.932
  333DOPC   D2B 3262  20.979   5.864   6.612
  333DOPC   C3B 3263  21.049   5.774   6.182
  333DOPC   C4B 3264  21.019   5.504   5.912
  334DOPC   NC3 3265  24.829   2.694   3.342
  334DOPC   PO4 3266  24.569   2.394   3.182
  334DOPC   GL1 3267  24.759   2.244   3.592
  334DOPC   GL2 3268  24.629   2.114   3.862
  334DOPC   C1A 3269  24.979   2.384   4.132
  334DOPC   D2A 3270  24.869   2.374   4.622
  334DOPC   C3A 3271  25.049   2.024   4.962
  334DOPC   C4A 3272  25.449   1.674   4.832
  334DOPC   C1B 3273  24.689   1.994   4.342
  334DOPC   D2B 3274  24.349   1.904   4.612
  334DOPC   C3B 3275  24.549   1.954   5.072
  334DOPC   C4B 3276  24.879   2.044   5.492
  335DOPC   NC3 3277  21.279  14.084   7.502
  335DOPC   PO4 3278  21.159  13.584   7.582
  335DOPC   GL1 3279  21.409  13.624   7.352
  335DOPC   GL2 3280  21.489  13.304   7.202
  335DOPC   C1A 3281  21.479  13.664   6.862
  335DOPC   D2A 3282  21.599  13.764   6.432
  335DOPC   C3A 3283  21.649  13.634   5.972
  335DOPC   C4A 3284  21.679  13.554   5.562
  335DOPC   C1B 3285  21.449  13.134   6.692
  335DOPC   D2B 3286  21.219  12.804   6.432
  335DOPC   C3B 3287  21.099  12.864   6.092
  335DOPC   C4B 3288  20.939  12.614   5.732
  336DOPC   NC3 3289   5.579  18.244   8.372
  336DOPC   PO4 3290   5.749  17.954   8.022
  336DOPC   GL1 3291   5.679  17.834   7.622
  336DOPC   GL2 3292   5.899  17.784   7.592
  336DOPC   C1A 3293   5.489  17.554   7.332
  336DOPC   D2A 3294   5.109  17.434   7.492
  336DOPC   C3A 3295   4.749  17.584   7.262
  336DOPC   C4A 3296   4.549  17.464   6.782
  336DOPC   C1B 3297   6.029  18.144   7.282
  336DOPC   D2B 3298   6.079  18.204   6.872
  336DOPC   C3B 3299   6.029  18.214   6.392
  336DOPC   C4B 3300   5.829  18.094   6.092
  337DOPC   NC3 3301  23.459  13.974   3.382
  337DOPC   PO4 3302  23.279  13.734   3.652
  337DOPC   GL1 3303  23.499  13.514   3.982
  337DOPC   GL2 3304  23.629  13.584   4.262
  337DOPC   C1A 3305  23.209  13.164   4.202
  337DOPC   D2A 3306  23.339  12.684   4.422
  337DOPC   C3A 3307  23.449  12.614   4.872
  337DOPC   C4A 3308  23.559  12.524   5.292
  337DOPC   C1B 3309  23.489  13.954   4.362
  337DOPC   D2B 3310  23.069  14.104   4.472
  337DOPC   C3B 3311  22.969  13.954   4.902
  337DOPC   C4B 3312  22.799  13.704   5.232
  338DOPC   NC3 3313   7.379  21.791   8.072
  338DOPC   PO4 3314   7.829  21.771   8.192
  338DOPC   GL1 3315   8.149  21.951   8.022
  338DOPC   GL2 3316   8.259  22.241   7.812
  338DOPC   C1A 3317   8.479  21.811   7.602
  338DOPC   D2A 3318   8.609  21.371   7.552
  338DOPC   C3A 3319   9.109  21.274   7.382
  338DOPC   C4A 3320   9.309  21.371   6.992
  338DOPC   C1B 3321   8.169  22.171   7.352
  338DOPC   D2B 3322   8.389  21.991   7.092
  338DOPC   C3B 3323   8.629  22.201   6.732
  338DOPC   C4B 3324   8.549  22.051   6.312
  339DOPC   NC3 3325   7.169  13.524   7.932
  339DOPC   PO4 3326   7.609  13.504   8.042
  339DOPC   GL1 3327   7.929  13.694   7.742
  339DOPC   GL2 3328   7.639  13.694   7.492
  339DOPC   C1A 3329   7.889  14.134   7.452
  339DOPC   D2A 3330   7.969  14.594   7.312
  339DOPC   C3A 3331   7.849  14.664   6.852
  339DOPC   C4A 3332   7.779  14.684   6.362
  339DOPC   C1B 3333   7.909  13.654   7.152
  339DOPC   D2B 3334   8.209  13.354   7.012
  339DOPC   C3B 3335   8.549  13.344   6.572
  339DOPC   C4B 3336   8.859  13.604   6.362
  340DOPC   NC3 3337  -0.139  17.524   7.642
  340DOPC   PO4 3338  -0.199  17.914   7.362
  340DOPC   GL1 3339  -0.129  17.764   6.992
  340DOPC   GL2 3340  -0.379  17.804   6.782
  340DOPC   C1A 3341   0.149  17.904   6.552
  340DOPC   D2A 3342   0.569  17.784   6.352
  340DOPC   C3A 3343   0.669  17.894   5.932
  340DOPC   C4A 3344   0.839  18.074   5.642
  340DOPC   C1B 3345  -0.319  17.624   6.382
  340DOPC   D2B 3346  -0.389  17.534   5.912
  340DOPC   C3B 3347   0.031  17.364   5.702
  340DOPC   C4B 3348   0.069  16.974   5.602
  341DOPC   NC3 3349  12.239  11.104   5.232
  341DOPC   PO4 3350  12.069  10.664   5.172
  341DOPC   GL1 3351  12.159  10.234   5.392
  341DOPC   GL2 3352  11.889   9.974   5.302
  341DOPC   C1A 3353  11.979  10.104   5.862
  341DOPC   D2A 3354  12.029   9.824   6.362
  341DOPC   C3A 3355  12.189   9.444   6.382
  341DOPC   C4A 3356  12.329   9.124   6.572
  341DOPC   C1B 3357  11.549  10.124   5.612
  341DOPC   D2B 3358  11.459  10.054   6.072
  341DOPC   C3B 3359  11.179  10.364   6.242
  341DOPC   C4B 3360  10.799  10.434   6.362
  342DOPC   NC3 3361  21.459  19.334   7.872
  342DOPC   PO4 3362  21.299  19.014   7.562
  342DOPC   GL1 3363  21.229  18.864   7.192
  342DOPC   GL2 3364  21.509  18.934   7.042
  342DOPC   C1A 3365  20.949  18.844   6.922
  342DOPC   D2A 3366  21.069  19.004   6.472
  342DOPC   C3A 3367  20.949  18.964   6.072
  342DOPC   C4A 3368  21.059  18.564   5.912
  342DOPC   C1B 3369  21.589  19.004   6.592
  342DOPC   D2B 3370  21.449  19.004   6.152
  342DOPC   C3B 3371  21.509  18.714   6.012
  342DOPC   C4B 3372  21.839  18.514   5.982
  343DOPC   NC3 3373   5.479   1.534   3.862
  343DOPC   PO4 3374   5.089   1.584   3.812
  343DOPC   GL1 3375   5.149   1.334   4.162
  343DOPC   GL2 3376   5.289   1.024   4.122
  343DOPC   C1A 3377   5.119   1.324   4.612
  343DOPC   D2A 3378   5.089   1.294   5.012
  343DOPC   C3A 3379   5.059   1.544   5.322
  343DOPC   C4A 3380   4.839   1.734   5.552
  343DOPC   C1B 3381   5.449   0.954   4.502
  343DOPC   D2B 3382   5.609   1.344   4.842
  343DOPC   C3B 3383   5.769   1.274   5.282
  343DOPC   C4B 3384   5.949   1.144   5.642
  344DOPC   NC3 3385  16.609  18.714   7.352
  344DOPC   PO4 3386  16.819  18.984   7.492
  344DOPC   GL1 3387  16.989  18.764   7.042
  344DOPC   GL2 3388  17.059  18.454   7.102
  344DOPC   C1A 3389  17.079  18.714   6.562
  344DOPC   D2A 3390  17.109  18.664   6.172
  344DOPC   C3A 3391  16.879  18.754   5.822
  344DOPC   C4A 3392  16.579  18.584   5.772
  344DOPC   C1B 3393  16.729  18.314   6.772
  344DOPC   D2B 3394  16.779  18.324   6.312
  344DOPC   C3B 3395  16.999  18.224   5.852
  344DOPC   C4B 3396  17.019  18.184   5.452
  345DOPC   NC3 3397  24.789   3.944   6.942
  345DOPC   PO4 3398  24.439   3.674   6.872
  345DOPC   GL1 3399  24.459   3.634   6.482
  345DOPC   GL2 3400  24.459   4.004   6.352
  345DOPC   C1A 3401  24.699   3.544   6.112
  345DOPC   D2A 3402  24.799   3.424   5.582
  345DOPC   C3A 3403  24.629   3.644   5.262
  345DOPC   C4A 3404  24.569   3.874   4.842
  345DOPC   C1B 3405  24.749   4.034   5.992
  345DOPC   D2B 3406  24.859   3.954   5.542
  345DOPC   C3B 3407  24.539   4.204   5.392
  345DOPC   C4B 3408  24.149   4.224   5.122
  346DOPC   NC3 3409   3.209  24.081   3.852
  346DOPC   PO4 3410   3.489  24.481   3.662
  346DOPC   GL1 3411   3.669  24.421   4.072
  346DOPC   GL2 3412   3.839  24.761   4.132
  346DOPC   C1A 3413   3.659  24.551   4.582
  346DOPC   D2A 3414   3.339  24.771   4.982
  346DOPC   C3A 3415   3.279  24.671   5.412
  346DOPC   C4A 3416   2.869  24.751   5.702
  346DOPC   C1B 3417   4.059  24.781   4.512
  346DOPC   D2B 3418   3.819  24.901   4.972
  346DOPC   C3B 3419   4.029  24.911   5.302
  346DOPC   C4B 3420   3.889  25.271   5.582
  347DOPC   NC3 3421   2.659  24.211   3.632
  347DOPC   PO4 3422   2.889  23.761   3.622
  347DOPC   GL1 3423   2.799  23.761   4.032
  347DOPC   GL2 3424   3.099  23.741   4.272
  347DOPC   C1A 3425   2.579  23.831   4.472
  347DOPC   D2A 3426   2.549  23.931   4.882
  347DOPC   C3A 3427   2.369  24.281   5.062
  347DOPC   C4A 3428   2.529  24.491   5.432
  347DOPC   C1B 3429   3.039  23.761   4.692
  347DOPC   D2B 3430   3.049  23.331   5.112
  347DOPC   C3B 3431   2.759  23.061   5.342
  347DOPC   C4B 3432   2.889  22.691   5.182
  348DOPC   NC3 3433  20.839   3.614   7.492
  348DOPC   PO4 3434  20.489   3.714   7.352
  348DOPC   GL1 3435  20.499   3.914   6.972
  348DOPC   GL2 3436  20.819   3.804   6.902
  348DOPC   C1A 3437  20.419   4.294   6.592
  348DOPC   D2A 3438  20.289   4.574   6.442
  348DOPC   C3A 3439  20.019   4.514   6.012
  348DOPC   C4A 3440  19.799   4.204   5.792
  348DOPC   C1B 3441  20.829   4.004   6.612
  348DOPC   D2B 3442  20.739   4.134   6.172
  348DOPC   C3B 3443  20.829   3.964   5.772
  348DOPC   C4B 3444  21.099   4.074   5.462
  349DOPC   NC3 3445  12.669   3.774   8.032
  349DOPC   PO4 3446  12.959   3.484   8.002
  349DOPC   GL1 3447  12.929   3.684   7.602
  349DOPC   GL2 3448  12.739   3.964   7.482
  349DOPC   C1A 3449  12.709   3.434   7.322
  349DOPC   D2A 3450  12.739   3.204   6.932
  349DOPC   C3A 3451  12.369   3.264   6.682
  349DOPC   C4A 3452  12.149   3.304   6.302
  349DOPC   C1B 3453  13.009   3.894   7.192
  349DOPC   D2B 3454  12.979   4.114   6.792
  349DOPC   C3B 3455  13.249   4.034   6.432
  349DOPC   C4B 3456  13.039   3.734   6.032
  350DOPC   NC3 3457  11.669  22.841   8.242
  350DOPC   PO4 3458  12.119  22.821   8.222
  350DOPC   GL1 3459  12.059  22.761   7.912
  350DOPC   GL2 3460  12.089  23.071   7.792
  350DOPC   C1A 3461  12.009  22.491   7.492
  350DOPC   D2A 3462  11.829  22.491   7.112
  350DOPC   C3A 3463  11.899  22.171   6.792
  350DOPC   C4A 3464  11.909  21.691   6.482
  350DOPC   C1B 3465  11.869  22.981   7.342
  350DOPC   D2B 3466  11.409  22.841   7.332
  350DOPC   C3B 3467  11.149  23.151   7.202
  350DOPC   C4B 3468  10.949  23.151   6.782
  351DOPC   NC3 3469  19.929   4.404   7.622
  351DOPC   PO4 3470  19.629   4.664   7.832
  351DOPC   GL1 3471  19.769   4.914   7.462
  351DOPC   GL2 3472  19.409   4.784   7.262
  351DOPC   C1A 3473  20.029   5.124   7.112
  351DOPC   D2A 3474  20.069   5.374   6.722
  351DOPC   C3A 3475  20.389   5.644   6.612
  351DOPC   C4A 3476  20.559   5.614   6.292
  351DOPC   C1B 3477  19.629   4.884   6.972
  351DOPC   D2B 3478  19.929   4.844   6.702
  351DOPC   C3B 3479  19.939   4.994   6.352
  351DOPC   C4B 3480  19.879   5.044   5.922
  352DOPC   NC3 3481   7.069  10.374   7.762
  352DOPC   PO4 3482   7.469  10.154   7.712
  352DOPC   GL1 3483   7.229  10.244   7.292
  352DOPC   GL2 3484   7.359  10.034   7.072
  352DOPC   C1A 3485   7.459  10.514   6.872
  352DOPC   D2A 3486   7.629  10.524   6.422
  352DOPC   C3A 3487   7.959  10.854   6.482
  352DOPC   C4A 3488   8.319  11.104   6.602
  352DOPC   C1B 3489   7.629  10.044   6.602
  352DOPC   D2B 3490   7.859  10.164   6.172
  352DOPC   C3B 3491   8.349  10.114   6.192
  352DOPC   C4B 3492   8.669  10.434   5.912
  353DOPC   NC3 3493  15.309   6.864   4.402
  353DOPC   PO4 3494  15.639   6.924   4.542
  353DOPC   GL1 3495  15.769   6.844   4.872
  353DOPC   GL2 3496  15.849   6.624   4.952
  353DOPC   C1A 3497  15.939   7.114   5.122
  353DOPC   D2A 3498  16.019   7.274   5.602
  353DOPC   C3A 3499  16.109   7.494   5.822
  353DOPC   C4A 3500  16.159   7.844   6.172
  353DOPC   C1B 3501  15.789   6.194   5.072
  353DOPC   D2B 3502  15.379   5.934   5.072
  353DOPC   C3B 3503  15.169   5.904   5.442
  353DOPC   C4B 3504  15.079   5.904   5.972
  354DOPC   NC3 3505  22.999   5.804   3.442
  354DOPC   PO4 3506  23.389   5.504   3.432
  354DOPC   GL1 3507  23.289   5.214   3.642
  354DOPC   GL2 3508  23.149   5.354   3.872
  354DOPC   C1A 3509  23.369   4.964   4.062
  354DOPC   D2A 3510  23.509   5.044   4.442
  354DOPC   C3A 3511  23.619   4.784   4.802
  354DOPC   C4A 3512  23.689   4.944   5.312
  354DOPC   C1B 3513  23.049   5.564   4.312
  354DOPC   D2B 3514  22.889   5.864   4.602
  354DOPC   C3B 3515  22.979   6.364   4.632
  354DOPC   C4B 3516  22.859   6.354   5.152
  355DOPC   NC3 3517  19.059  18.524   3.572
  355DOPC   PO4 3518  19.399  18.234   3.532
  355DOPC   GL1 3519  19.579  18.284   4.012
  355DOPC   GL2 3520  19.809  18.184   4.092
  355DOPC   C1A 3521  19.719  18.604   4.282
  355DOPC   D2A 3522  19.639  18.864   4.652
  355DOPC   C3A 3523  19.429  19.204   4.472
  355DOPC   C4A 3524  19.449  19.534   4.202
  355DOPC   C1B 3525  20.039  18.014   4.502
  355DOPC   D2B 3526  19.919  17.904   4.882
  355DOPC   C3B 3527  19.899  17.584   5.132
  355DOPC   C4B 3528  19.829  17.194   5.202
  356DOPC   NC3 3529  24.229  12.494   7.752
  356DOPC   PO4 3530  24.149  12.184   7.602
  356DOPC   GL1 3531  24.019  12.214   7.212
  356DOPC   GL2 3532  24.319  12.454   7.182
  356DOPC   C1A 3533  23.939  12.224   6.802
  356DOPC   D2A 3534  24.029  12.434   6.382
  356DOPC   C3A 3535  24.269  12.804   6.192
  356DOPC   C4A 3536  24.189  12.874   5.732
  356DOPC   C1B 3537  24.019  12.714   6.812
  356DOPC   D2B 3538  23.929  13.084   6.532
  356DOPC   C3B 3539  24.359  13.204   6.482
  356DOPC   C4B 3540  24.549  13.154   5.982
  357DOPC   NC3 3541  12.019   9.094   4.332
  357DOPC   PO4 3542  11.559   9.094   4.332
  357DOPC   GL1 3543  11.459   9.014   4.832
  357DOPC   GL2 3544  11.189   9.144   4.932
  357DOPC   C1A 3545  11.459   8.684   5.132
  357DOPC   D2A 3546  11.479   8.254   5.272
  357DOPC   C3A 3547  11.849   8.204   5.422
  357DOPC   C4A 3548  12.089   7.844   5.582
  357DOPC   C1B 3549  11.199   9.164   5.472
  357DOPC   D2B 3550  11.209   9.114   5.802
  357DOPC   C3B 3551  11.179   8.714   6.092
  357DOPC   C4B 3552  11.269   8.354   6.282
  358DOPC   NC3 3553  13.649   4.224   8.112
  358DOPC   PO4 3554  13.649   3.824   8.272
  358DOPC   GL1 3555  13.869   3.784   7.822
  358DOPC   GL2 3556  13.779   3.554   7.492
  358DOPC   C1A 3557  14.239   3.694   7.502
  358DOPC   D2A 3558  14.459   3.734   7.012
  358DOPC   C3A 3559  14.479   3.604   6.592
  358DOPC   C4A 3560  14.099   3.404   6.312
  358DOPC   C1B 3561  13.449   3.874   7.422
  358DOPC   D2B 3562  13.479   4.064   7.102
  358DOPC   C3B 3563  13.469   3.794   6.802
  358DOPC   C4B 3564  13.509   3.574   6.372
  359DOPC   NC3 3565   5.329  22.551   3.952
  359DOPC   PO4 3566   5.139  22.131   3.942
  359DOPC   GL1 3567   5.129  22.291   4.362
  359DOPC   GL2 3568   5.219  22.681   4.462
  359DOPC   C1A 3569   5.169  22.241   4.832
  359DOPC   D2A 3570   5.589  22.371   4.972
  359DOPC   C3A 3571   5.999  22.591   4.782
  359DOPC   C4A 3572   6.519  22.541   4.762
  359DOPC   C1B 3573   5.569  22.831   4.712
  359DOPC   D2B 3574   5.899  23.051   4.972
  359DOPC   C3B 3575   6.029  22.851   5.392
  359DOPC   C4B 3576   5.879  22.591   5.772
  360DOPC   NC3 3577  10.309   9.494   4.372
  360DOPC   PO4 3578  10.689   9.334   4.472
  360DOPC   GL1 3579  10.739   9.444   4.892
  360DOPC   GL2 3580  11.029   9.564   5.032
  360DOPC   C1A 3581  10.759   9.224   5.222
  360DOPC   D2A 3582  10.709   9.294   5.722
  360DOPC   C3A 3583  10.749   9.044   6.112
  360DOPC   C4A 3584  10.569   8.594   6.392
  360DOPC   C1B 3585  11.389   9.594   5.302
  360DOPC   D2B 3586  11.659   9.624   5.642
  360DOPC   C3B 3587  11.589   9.474   6.082
  360DOPC   C4B 3588  11.489   9.664   6.472
  361DOPC   NC3 3589  13.019   6.454   8.472
  361DOPC   PO4 3590  12.679   6.154   8.432
  361DOPC   GL1 3591  12.699   6.284   8.032
  361DOPC   GL2 3592  12.359   6.264   7.812
  361DOPC   C1A 3593  12.859   6.174   7.672
  361DOPC   D2A 3594  12.879   6.054   7.242
  361DOPC   C3A 3595  13.239   5.824   7.132
  361DOPC   C4A 3596  13.589   5.814   7.112
  361DOPC   C1B 3597  12.319   6.064   7.492
  361DOPC   D2B 3598  12.389   5.794   7.082
  361DOPC   C3B 3599  12.659   5.884   6.812
  361DOPC   C4B 3600  13.029   6.004   6.672
  362DOPC   NC3 3601  21.979   5.604   7.462
  362DOPC   PO4 3602  21.589   5.804   7.642
  362DOPC   GL1 3603  21.579   5.534   7.142
  362DOPC   GL2 3604  21.769   5.824   6.982
  362DOPC   C1A 3605  21.369   5.624   6.772
  362DOPC   D2A 3606  21.419   5.434   6.412
  362DOPC   C3A 3607  21.499   5.624   6.052
  362DOPC   C4A 3608  21.749   5.794   5.722
  362DOPC   C1B 3609  21.899   5.594   6.522
  362DOPC   D2B 3610  22.179   5.414   6.212
  362DOPC   C3B 3611  21.879   5.324   5.772
  362DOPC   C4B 3612  21.499   5.164   5.812
  363DOPC   NC3 3613  11.999  21.234   4.802
  363DOPC   PO4 3614  12.309  21.501   4.652
  363DOPC   GL1 3615  12.499  21.324   5.002
  363DOPC   GL2 3616  12.189  21.264   5.352
  363DOPC   C1A 3617  12.569  21.581   5.372
  363DOPC   D2A 3618  12.629  21.631   5.792
  363DOPC   C3A 3619  12.919  21.581   6.082
  363DOPC   C4A 3620  13.219  21.761   6.402
  363DOPC   C1B 3621  12.169  21.451   5.792
  363DOPC   D2B 3622  12.229  21.831   6.032
  363DOPC   C3B 3623  11.889  22.071   6.212
  363DOPC   C4B 3624  11.479  22.061   6.422
  364DOPC   NC3 3625   0.989  19.534   3.092
  364DOPC   PO4 3626   0.869  19.334   3.442
  364DOPC   GL1 3627   0.759  19.304   3.902
  364DOPC   GL2 3628   0.519  19.124   3.992
  364DOPC   C1A 3629   0.689  19.524   4.272
  364DOPC   D2A 3630   0.859  19.694   4.792
  364DOPC   C3A 3631   0.909  19.534   5.122
  364DOPC   C4A 3632   0.849  19.454   5.562
  364DOPC   C1B 3633   0.809  19.084   4.332
  364DOPC   D2B 3634   1.039  19.174   4.702
  364DOPC   C3B 3635   1.429  18.944   4.892
  364DOPC   C4B 3636   1.499  18.584   4.982
  365DOPC   NC3 3637   6.429  18.184   7.712
  365DOPC   PO4 3638   6.249  17.834   7.922
  365DOPC   GL1 3639   6.419  17.734   7.502
  365DOPC   GL2 3640   6.219  17.534   7.312
  365DOPC   C1A 3641   6.419  17.854   7.032
  365DOPC   D2A 3642   6.239  17.784   6.642
  365DOPC   C3A 3643   6.379  17.984   6.162
  365DOPC   C4A 3644   6.509  18.064   5.722
  365DOPC   C1B 3645   5.889  17.734   6.992
  365DOPC   D2B 3646   5.519  17.844   6.652
  365DOPC   C3B 3647   5.519  18.224   6.472
  365DOPC   C4B 3648   5.719  18.544   6.082
  366DOPC   NC3 3649  15.089   3.894   4.342
  366DOPC   PO4 3650  14.739   3.524   4.392
  366DOPC   GL1 3651  15.059   3.454   4.682
  366DOPC   GL2 3652  14.919   3.734   4.862
  366DOPC   C1A 3653  15.099   3.334   5.122
  366DOPC   D2A 3654  15.149   3.044   5.342
  366DOPC   C3A 3655  15.099   2.984   5.872
  366DOPC   C4A 3656  15.059   2.744   6.252
  366DOPC   C1B 3657  14.709   3.674   5.252
  366DOPC   D2B 3658  14.619   3.804   5.702
  366DOPC   C3B 3659  14.799   3.574   6.092
  366DOPC   C4B 3660  15.149   3.464   6.132
  367DOPC   NC3 3661  14.129   1.714   8.592
  367DOPC   PO4 3662  14.469   1.434   8.512
  367DOPC   GL1 3663  14.609   1.264   8.042
  367DOPC   GL2 3664  14.849   1.554   7.952
  367DOPC   C1A 3665  14.729   1.144   7.682
  367DOPC   D2A 3666  14.529   0.814   7.492
  367DOPC   C3A 3667  14.899   0.654   7.292
  367DOPC   C4A 3668  15.129   0.414   7.032
  367DOPC   C1B 3669  15.109   1.454   7.522
  367DOPC   D2B 3670  14.839   1.274   7.202
  367DOPC   C3B 3671  14.799   1.454   6.792
  367DOPC   C4B 3672  15.009   1.734   6.592
  368DOPC   NC3 3673  21.059  15.984   7.572
  368DOPC   PO4 3674  20.989  15.674   7.262
  368DOPC   GL1 3675  20.919  15.334   6.982
  368DOPC   GL2 3676  21.119  15.044   7.042
  368DOPC   C1A 3677  21.099  15.274   6.552
  368DOPC   D2A 3678  21.009  15.064   6.192
  368DOPC   C3A 3679  21.009  15.184   5.792
  368DOPC   C4A 3680  21.269  15.354   5.602
  368DOPC   C1B 3681  20.759  14.954   6.672
  368DOPC   D2B 3682  20.609  14.794   6.262
  368DOPC   C3B 3683  20.799  14.684   5.902
  368DOPC   C4B 3684  20.659  14.534   5.552
  369DOPC   NC3 3685  10.459  18.434   8.322
  369DOPC   PO4 3686  10.549  18.874   8.362
  369DOPC   GL1 3687  10.579  18.914   8.032
  369DOPC   GL2 3688  10.409  18.644   7.832
  369DOPC   C1A 3689  10.569  19.144   7.662
  369DOPC   D2A 3690  10.319  19.304   7.442
  369DOPC   C3A 3691   9.949  19.064   7.242
  369DOPC   C4A 3692   9.669  19.394   7.142
  369DOPC   C1B 3693  10.129  18.624   7.442
  369DOPC   D2B 3694  10.049  18.484   7.012
  369DOPC   C3B 3695  10.219  18.554   6.632
  369DOPC   C4B 3696  10.559  18.294   6.392
  370DOPC   NC3 3697  17.039   6.724   4.552
  370DOPC   PO4 3698  17.319   7.084   4.422
  370DOPC   GL1 3699  17.229   7.134   4.792
  370DOPC   GL2 3700  17.289   7.434   4.922
  370DOPC   C1A 3701  17.069   7.074   5.242
  370DOPC   D2A 3702  17.199   7.274   5.502
  370DOPC   C3A 3703  17.499   7.164   5.782
  370DOPC   C4A 3704  17.559   6.934   6.172
  370DOPC   C1B 3705  17.549   7.594   5.322
  370DOPC   D2B 3706  17.559   7.694   5.812
  370DOPC   C3B 3707  17.189   7.844   6.112
  370DOPC   C4B 3708  17.009   7.814   6.442
  371DOPC   NC3 3709   3.039  19.454   4.362
  371DOPC   PO4 3710   3.499  19.244   4.182
  371DOPC   GL1 3711   3.439  19.244   4.642
  371DOPC   GL2 3712   3.109  19.084   4.832
  371DOPC   C1A 3713   3.459  19.274   5.122
  371DOPC   D2A 3714   3.439  19.604   5.452
  371DOPC   C3A 3715   2.999  19.714   5.702
  371DOPC   C4A 3716   2.619  19.774   5.512
  371DOPC   C1B 3717   2.659  19.014   5.122
  371DOPC   D2B 3718   2.329  19.024   5.422
  371DOPC   C3B 3719   1.999  19.014   5.452
  371DOPC   C4B 3720   1.789  19.304   5.162
  372DOPC   NC3 3721  14.929   8.354   8.142
  372DOPC   PO4 3722  14.809   8.674   8.322
  372DOPC   GL1 3723  14.639   8.764   7.902
  372DOPC   GL2 3724  14.939   8.614   7.652
  372DOPC   C1A 3725  14.489   8.454   7.512
  372DOPC   D2A 3726  14.219   8.304   7.262
  372DOPC   C3A 3727  14.129   8.004   7.012
  372DOPC   C4A 3728  13.929   8.104   6.632
  372DOPC   C1B 3729  14.889   8.224   7.402
  372DOPC   D2B 3730  14.619   7.944   7.412
  372DOPC   C3B 3731  14.559   7.804   7.012
  372DOPC   C4B 3732  14.649   7.554   6.682
  373DOPC   NC3 3733  19.199  20.394   7.802
  373DOPC   PO4 3734  18.889  20.354   7.492
  373DOPC   GL1 3735  19.059  20.664   7.202
  373DOPC   GL2 3736  19.269  20.944   7.102
  373DOPC   C1A 3737  19.329  20.534   6.802
  373DOPC   D2A 3738  19.189  20.614   6.322
  373DOPC   C3A 3739  19.129  20.344   5.992
  373DOPC   C4A 3740  18.919  20.054   5.862
  373DOPC   C1B 3741  19.149  21.064   6.682
  373DOPC   D2B 3742  18.829  21.324   6.382
  373DOPC   C3B 3743  18.779  21.344   5.992
  373DOPC   C4B 3744  18.699  21.581   5.702
  374DOPC   NC3 3745   5.549  23.791   8.422
  374DOPC   PO4 3746   5.399  23.511   8.022
  374DOPC   GL1 3747   5.239  23.471   7.552
  374DOPC   GL2 3748   5.459  23.251   7.452
  374DOPC   C1A 3749   4.999  23.691   7.182
  374DOPC   D2A 3750   4.999  23.821   6.702
  374DOPC   C3A 3751   5.259  23.631   6.412
  374DOPC   C4A 3752   5.309  23.311   6.242
  374DOPC   C1B 3753   5.659  23.201   7.142
  374DOPC   D2B 3754   5.709  23.261   6.692
  374DOPC   C3B 3755   5.989  22.961   6.442
  374DOPC   C4B 3756   6.249  22.621   6.292
  375DOPC   NC3 3757   6.809   8.554   7.712
  375DOPC   PO4 3758   7.199   8.654   7.892
  375DOPC   GL1 3759   7.189   8.744   7.452
  375DOPC   GL2 3760   7.449   8.554   7.232
  375DOPC   C1A 3761   7.059   8.864   6.992
  375DOPC   D2A 3762   7.109   8.974   6.552
  375DOPC   C3A 3763   7.359   9.344   6.562
  375DOPC   C4A 3764   7.359   9.644   6.762
  375DOPC   C1B 3765   7.479   8.614   6.802
  375DOPC   D2B 3766   7.479   8.634   6.312
  375DOPC   C3B 3767   7.379   9.034   6.162
  375DOPC   C4B 3768   7.169   9.424   6.002
  376DOPC   NC3 3769  16.499  12.164   8.472
  376DOPC   PO4 3770  16.619  11.974   8.102
  376DOPC   GL1 3771  16.579  12.014   7.682
  376DOPC   GL2 3772  16.419  11.834   7.642
  376DOPC   C1A 3773  16.549  12.174   7.322
  376DOPC   D2A 3774  16.819  12.474   7.142
  376DOPC   C3A 3775  17.159  12.634   7.202
  376DOPC   C4A 3776  17.609  12.624   7.042
  376DOPC   C1B 3777  16.309  11.724   7.322
  376DOPC   D2B 3778  16.309  11.884   7.002
  376DOPC   C3B 3779  16.539  11.634   6.722
  376DOPC   C4B 3780  16.579  11.254   6.372
  377DOPC   NC3 3781   0.399   6.784   6.802
  377DOPC   PO4 3782   0.001   6.924   6.692
  377DOPC   GL1 3783   0.299   6.804   6.302
  377DOPC   GL2 3784   0.249   6.484   6.402
  377DOPC   C1A 3785   0.229   6.924   5.822
  377DOPC   D2A 3786   0.359   6.994   5.402
  377DOPC   C3A 3787   0.369   7.174   5.062
  377DOPC   C4A 3788   0.489   7.304   4.662
  377DOPC   C1B 3789   0.349   6.334   6.022
  377DOPC   D2B 3790   0.209   6.334   5.632
  377DOPC   C3B 3791  -0.079   6.624   5.492
  377DOPC   C4B 3792  -0.279   6.424   5.162
  378DOPC   NC3 3793   9.519  22.621   4.112
  378DOPC   PO4 3794   9.169  22.231   4.202
  378DOPC   GL1 3795   9.069  22.311   4.592
  378DOPC   GL2 3796   8.799  22.411   4.582
  378DOPC   C1A 3797   8.829  22.171   5.052
  378DOPC   D2A 3798   8.659  21.921   5.392
  378DOPC   C3A 3799   8.649  21.531   5.372
  378DOPC   C4A 3800   8.379  21.204   5.102
  378DOPC   C1B 3801   9.109  22.611   5.002
  378DOPC   D2B 3802   9.419  22.731   5.202
  378DOPC   C3B 3803   9.389  22.601   5.662
  378DOPC   C4B 3804   9.179  22.841   6.032
  379DOPC   NC3 3805   6.599  22.461   8.022
  379DOPC   PO4 3806   7.049  22.571   8.102
  379DOPC   GL1 3807   7.299  22.651   7.682
  379DOPC   GL2 3808   7.549  22.711   7.672
  379DOPC   C1A 3809   7.359  22.661   7.232
  379DOPC   D2A 3810   7.519  22.771   6.842
  379DOPC   C3A 3811   7.519  23.071   6.512
  379DOPC   C4A 3812   7.419  23.461   6.182
  379DOPC   C1B 3813   7.839  22.721   7.372
  379DOPC   D2B 3814   7.949  22.521   6.982
  379DOPC   C3B 3815   7.909  22.681   6.552
  379DOPC   C4B 3816   7.769  22.721   6.142
  380DOPC   NC3 3817   5.839  11.144   7.082
  380DOPC   PO4 3818   5.759  11.514   7.262
  380DOPC   GL1 3819   5.989  11.704   6.932
  380DOPC   GL2 3820   5.689  11.914   6.782
  380DOPC   C1A 3821   6.179  11.864   6.582
  380DOPC   D2A 3822   6.419  11.724   6.392
  380DOPC   C3A 3823   6.499  11.934   6.042
  380DOPC   C4A 3824   6.639  12.184   5.792
  380DOPC   C1B 3825   5.769  12.144   6.462
  380DOPC   D2B 3826   5.659  12.244   6.032
  380DOPC   C3B 3827   5.489  12.614   6.022
  380DOPC   C4B 3828   5.599  12.894   5.722
  381DOPC   NC3 3829  17.809   8.564   4.122
  381DOPC   PO4 3830  17.879   8.154   4.112
  381DOPC   GL1 3831  18.159   8.244   4.392
  381DOPC   GL2 3832  17.949   8.454   4.612
  381DOPC   C1A 3833  18.649   8.324   4.462
  381DOPC   D2A 3834  19.039   8.434   4.562
  381DOPC   C3A 3835  19.159   8.404   4.982
  381DOPC   C4A 3836  19.279   8.344   5.322
  381DOPC   C1B 3837  18.219   8.704   4.922
  381DOPC   D2B 3838  18.449   8.874   5.322
  381DOPC   C3B 3839  18.309   8.564   5.592
  381DOPC   C4B 3840  18.069   8.334   5.812
  382DOPC   NC3 3841  19.119  12.184   8.352
  382DOPC   PO4 3842  19.369  12.124   7.992
  382DOPC   GL1 3843  19.409  12.374   7.562
  382DOPC   GL2 3844  19.739  12.284   7.442
  382DOPC   C1A 3845  19.449  12.434   7.082
  382DOPC   D2A 3846  19.639  12.204   6.752
  382DOPC   C3A 3847  19.479  12.074   6.382
  382DOPC   C4A 3848  19.089  11.944   6.242
  382DOPC   C1B 3849  19.629  11.974   7.162
  382DOPC   D2B 3850  19.269  11.884   6.862
  382DOPC   C3B 3851  19.089  12.214   6.812
  382DOPC   C4B 3852  18.709  12.264   6.512
  383DOPC   NC3 3853  18.839   5.884   8.022
  383DOPC   PO4 3854  19.219   6.054   7.882
  383DOPC   GL1 3855  19.199   5.944   7.562
  383DOPC   GL2 3856  18.849   5.854   7.462
  383DOPC   C1A 3857  19.319   5.734   7.122
  383DOPC   D2A 3858  19.219   5.574   6.692
  383DOPC   C3A 3859  18.929   5.674   6.432
  383DOPC   C4A 3860  18.629   5.424   6.202
  383DOPC   C1B 3861  18.839   5.664   6.982
  383DOPC   D2B 3862  18.779   5.254   6.672
  383DOPC   C3B 3863  19.069   5.184   6.372
  383DOPC   C4B 3864  19.409   4.994   6.132
  384DOPC   NC3 3865  13.759  22.931   8.492
  384DOPC   PO4 3866  14.109  23.141   8.222
  384DOPC   GL1 3867  14.019  23.341   7.872
  384DOPC   GL2 3868  13.809  23.601   7.802
  384DOPC   C1A 3869  14.219  23.241   7.462
  384DOPC   D2A 3870  14.119  23.421   7.132
  384DOPC   C3A 3871  13.909  23.151   6.962
  384DOPC   C4A 3872  13.619  22.961   6.802
  384DOPC   C1B 3873  13.749  23.421   7.412
  384DOPC   D2B 3874  13.559  23.471   6.992
  384DOPC   C3B 3875  13.269  23.821   6.802
  384DOPC   C4B 3876  13.169  24.311   6.592
  385DOPC   NC3 3877  24.879  18.834   7.432
  385DOPC   PO4 3878  24.449  18.724   7.592
  385DOPC   GL1 3879  24.239  18.544   7.212
  385DOPC   GL2 3880  24.069  18.844   7.192
  385DOPC   C1A 3881  24.009  18.404   6.842
  385DOPC   D2A 3882  24.169  18.194   6.482
  385DOPC   C3A 3883  24.029  18.304   5.992
  385DOPC   C4A 3884  23.799  18.404   5.632
  385DOPC   C1B 3885  24.309  19.084   6.882
  385DOPC   D2B 3886  24.489  19.264   6.532
  385DOPC   C3B 3887  24.529  18.954   6.102
  385DOPC   C4B 3888  24.819  18.834   5.752
  386DOPC   NC3 3889  14.019  18.794   4.872
  386DOPC   PO4 3890  14.259  19.154   4.652
  386DOPC   GL1 3891  14.379  19.084   5.032
  386DOPC   GL2 3892  14.179  19.064   5.322
  386DOPC   C1A 3893  14.749  19.224   5.322
  386DOPC   D2A 3894  14.999  19.354   5.592
  386DOPC   C3A 3895  15.019  19.734   5.402
  386DOPC   C4A 3896  15.209  20.154   5.572
  386DOPC   C1B 3897  14.329  19.094   5.752
  386DOPC   D2B 3898  14.099  19.454   6.032
  386DOPC   C3B 3899  13.939  19.494   6.482
  386DOPC   C4B 3900  14.129  19.764   6.752
  387DOPC   NC3 3901  22.529  20.554   7.352
  387DOPC   PO4 3902  23.009  20.454   7.482
  387DOPC   GL1 3903  22.969  20.234   7.092
  387DOPC   GL2 3904  23.289  20.074   7.082
  387DOPC   C1A 3905  22.939  20.464   6.692
  387DOPC   D2A 3906  23.089  20.774   6.372
  387DOPC   C3A 3907  23.329  20.664   5.962
  387DOPC   C4A 3908  23.529  20.394   5.722
  387DOPC   C1B 3909  23.209  20.004   6.692
  387DOPC   D2B 3910  23.429  20.384   6.462
  387DOPC   C3B 3911  23.689  20.154   6.132
  387DOPC   C4B 3912  23.689  19.794   6.042
  388DOPC   NC3 3913   9.479  17.584   8.772
  388DOPC   PO4 3914   9.359  17.814   8.442
  388DOPC   GL1 3915   9.419  17.684   8.002
  388DOPC   GL2 3916   9.569  17.954   7.822
  388DOPC   C1A 3917   9.329  17.534   7.592
  388DOPC   D2A 3918   9.629  17.464   7.242
  388DOPC   C3A 3919   9.579  17.704   6.892
  388DOPC   C4A 3920   9.569  17.904   6.482
  388DOPC   C1B 3921   9.739  17.914   7.462
  388DOPC   D2B 3922   9.569  18.164   7.112
  388DOPC   C3B 3923   9.499  18.614   7.242
  388DOPC   C4B 3924   9.319  19.044   7.282
  389DOPC   NC3 3925   8.899   3.514   3.542
  389DOPC   PO4 3926   8.649   3.434   3.962
  389DOPC   GL1 3927   8.949   3.374   4.342
  389DOPC   GL2 3928   9.029   3.014   4.342
  389DOPC   C1A 3929   9.009   3.354   4.752
  389DOPC   D2A 3930   8.889   3.604   5.122
  389DOPC   C3A 3931   9.079   3.724   5.482
  389DOPC   C4A 3932   9.279   3.584   5.942
  389DOPC   C1B 3933   9.289   2.884   4.772
  389DOPC   D2B 3934   9.649   2.754   4.912
  389DOPC   C3B 3935   9.839   3.114   5.132
  389DOPC   C4B 3936   9.769   3.394   5.522
  390DOPC   NC3 3937  19.709   2.004   3.572
  390DOPC   PO4 3938  19.879   1.554   3.662
  390DOPC   GL1 3939  19.899   1.714   4.072
  390DOPC   GL2 3940  19.589   1.494   4.122
  390DOPC   C1A 3941  20.169   1.824   4.422
  390DOPC   D2A 3942  20.499   1.834   4.782
  390DOPC   C3A 3943  20.689   2.194   4.802
  390DOPC   C4A 3944  20.649   2.714   4.782
  390DOPC   C1B 3945  19.629   1.794   4.462
  390DOPC   D2B 3946  19.759   1.954   4.852
  390DOPC   C3B 3947  20.099   2.054   4.912
  390DOPC   C4B 3948  20.349   1.924   5.212
  391DOPC   NC3 3949  15.839   3.484   4.182
  391DOPC   PO4 3950  16.069   3.874   4.092
  391DOPC   GL1 3951  16.059   3.804   4.522
  391DOPC   GL2 3952  16.289   3.814   4.772
  391DOPC   C1A 3953  15.849   4.064   4.892
  391DOPC   D2A 3954  15.729   4.194   5.302
  391DOPC   C3A 3955  15.509   4.024   5.632
  391DOPC   C4A 3956  15.219   3.934   5.952
  391DOPC   C1B 3957  16.419   3.744   5.292
  391DOPC   D2B 3958  16.539   3.924   5.702
  391DOPC   C3B 3959  16.659   3.734   6.102
  391DOPC   C4B 3960  16.509   3.514   6.412
  392DOPC   NC3 3961   9.479  11.064   8.412
  392DOPC   PO4 3962   9.279  11.094   8.022
  392DOPC   GL1 3963   9.189  11.344   7.742
  392DOPC   GL2 3964   8.999  11.664   7.692
  392DOPC   C1A 3965   9.309  11.374   7.332
  392DOPC   D2A 3966   9.529  11.624   6.932
  392DOPC   C3A 3967   9.369  12.154   6.902
  392DOPC   C4A 3968   9.329  12.284   6.452
  392DOPC   C1B 3969   8.829  11.994   7.362
  392DOPC   D2B 3970   8.739  12.294   7.002
  392DOPC   C3B 3971   8.839  12.274   6.552
  392DOPC   C4B 3972   8.559  12.064   6.162
  393DOPC   NC3 3973  10.249  15.234   4.762
  393DOPC   PO4 3974  10.459  15.054   5.162
  393DOPC   GL1 3975  10.489  15.054   5.522
  393DOPC   GL2 3976  10.759  15.214   5.732
  393DOPC   C1A 3977  10.319  15.114   5.992
  393DOPC   D2A 3978  10.329  15.184   6.452
  393DOPC   C3A 3979  10.089  15.554   6.562
  393DOPC   C4A 3980  10.099  16.034   6.782
  393DOPC   C1B 3981  10.639  15.444   6.112
  393DOPC   D2B 3982  10.609  15.714   6.362
  393DOPC   C3B 3983  10.549  15.694   6.822
  393DOPC   C4B 3984  10.459  15.994   7.142
  394DOPC   NC3 3985  20.919   7.524   3.702
  394DOPC   PO4 3986  21.249   7.774   3.612
  394DOPC   GL1 3987  21.109   7.944   4.052
  394DOPC   GL2 3988  20.779   7.804   4.132
  394DOPC   C1A 3989  21.019   8.274   4.452
  394DOPC   D2A 3990  21.179   8.314   4.812
  394DOPC   C3A 3991  21.159   7.984   5.062
  394DOPC   C4A 3992  21.219   7.784   5.482
  394DOPC   C1B 3993  20.989   7.734   4.592
  394DOPC   D2B 3994  21.069   7.474   4.992
  394DOPC   C3B 3995  21.459   7.434   5.202
  394DOPC   C4B 3996  21.729   7.524   5.422
  395DOPC   NC3 3997  10.109   9.424   8.412
  395DOPC   PO4 3998   9.739   9.614   8.382
  395DOPC   GL1 3999   9.769   9.434   7.982
  395DOPC   GL2 4000   9.989   9.674   7.872
  395DOPC   C1A 4001   9.629   9.594   7.502
  395DOPC   D2A 4002   9.289   9.734   7.252
  395DOPC   C3A 4003   9.429   9.584   6.932
  395DOPC   C4A 4004   9.709   9.254   7.062
  395DOPC   C1B 4005   9.979   9.964   7.552
  395DOPC   D2B 4006   9.779  10.224   7.332
  395DOPC   C3B 4007   9.519  10.114   6.832
  395DOPC   C4B 4008   9.489  10.074   6.412
  396DOPC   NC3 4009  16.809  23.571   3.632
  396DOPC   PO4 4010  17.189  23.441   3.732
  396DOPC   GL1 4011  17.239  23.361   4.212
  396DOPC   GL2 4012  17.349  23.621   4.442
  396DOPC   C1A 4013  17.149  23.081   4.392
  396DOPC   D2A 4014  17.249  22.811   4.702
  396DOPC   C3A 4015  17.499  22.931   5.022
  396DOPC   C4A 4016  17.789  23.311   5.212
  396DOPC   C1B 4017  17.419  23.671   4.932
  396DOPC   D2B 4018  17.059  23.691   5.232
  396DOPC   C3B 4019  16.689  23.481   5.122
  396DOPC   C4B 4020  16.259  23.491   5.372
  397DOPC   NC3 4021   9.249   5.474   3.782
  397DOPC   PO4 4022   9.489   5.754   3.982
  397DOPC   GL1 4023   9.489   5.834   4.462
  397DOPC   GL2 4024   9.399   5.524   4.652
  397DOPC   C1A 4025   9.529   5.954   4.902
  397DOPC   D2A 4026   9.459   6.304   5.172
  397DOPC   C3A 4027   9.179   6.284   5.532
  397DOPC   C4A 4028   8.859   6.334   5.792
  397DOPC   C1B 4029   9.509   5.514   5.122
  397DOPC   D2B 4030   9.609   5.884   5.442
  397DOPC   C3B 4031   9.939   6.204   5.192
  397DOPC   C4B 4032  10.209   6.534   5.052
  398DOPC   NC3 4033   5.639   9.714   3.062
  398DOPC   PO4 4034   5.469   9.284   3.172
  398DOPC   GL1 4035   5.299   9.584   3.482
  398DOPC   GL2 4036   5.019   9.454   3.642
  398DOPC   C1A 4037   5.459   9.774   3.952
  398DOPC   D2A 4038   5.299   9.734   4.332
  398DOPC   C3A 4039   4.929   9.624   4.612
  398DOPC   C4A 4040   4.619   9.414   4.812
  398DOPC   C1B 4041   5.119   9.324   4.112
  398DOPC   D2B 4042   5.329   9.294   4.532
  398DOPC   C3B 4043   5.389   8.944   4.782
  398DOPC   C4B 4044   5.679   8.684   5.102
  399DOPC   NC3 4045   6.039   1.854   7.952
  399DOPC   PO4 4046   6.189   2.204   7.832
  399DOPC   GL1 4047   6.329   2.064   7.532
  399DOPC   GL2 4048   6.749   2.064   7.482
  399DOPC   C1A 4049   6.469   1.764   7.202
  399DOPC   D2A 4050   6.549   1.654   6.722
  399DOPC   C3A 4051   6.409   1.294   6.472
  399DOPC   C4A 4052   6.059   1.214   6.172
  399DOPC   C1B 4053   6.789   2.244   7.092
  399DOPC   D2B 4054   6.469   2.344   6.852
  399DOPC   C3B 4055   6.119   2.354   7.142
  399DOPC   C4B 4056   5.849   1.954   7.232
  400DOPC   NC3 4057  18.439  14.974   7.362
  400DOPC   PO4 4058  18.799  14.804   7.562
  400DOPC   GL1 4059  19.029  14.674   7.172
  400DOPC   GL2 4060  18.799  14.674   7.022
  400DOPC   C1A 4061  19.059  14.164   6.942
  400DOPC   D2A 4062  19.149  13.864   6.732
  400DOPC   C3A 4063  18.919  13.714   6.502
  400DOPC   C4A 4064  18.589  13.444   6.432
  400DOPC   C1B 4065  18.609  14.544   6.722
  400DOPC   D2B 4066  18.329  14.664   6.422
  400DOPC   C3B 4067  18.439  14.374   6.132
  400DOPC   C4B 4068  18.639  13.894   6.062
  401DOPC   NC3 4069   6.749  14.304   8.532
  401DOPC   PO4 4070   6.649  14.174   8.102
  401DOPC   GL1 4071   6.919  13.924   7.752
  401DOPC   GL2 4072   6.839  14.094   7.422
  401DOPC   C1A 4073   7.339  14.064   7.372
  401DOPC   D2A 4074   7.489  14.434   7.142
  401DOPC   C3A 4075   7.329  14.794   7.072
  401DOPC   C4A 4076   6.929  14.884   6.932
  401DOPC   C1B 4077   6.979  13.674   7.312
  401DOPC   D2B 4078   7.169  13.614   6.982
  401DOPC   C3B 4079   7.519  13.804   6.912
  401DOPC   C4B 4080   7.839  14.154   6.912
  402DOPC   NC3 4081  22.289   1.074   7.792
  402DOPC   PO4 4082  22.379   0.874   7.532
  402DOPC   GL1 4083  22.479   0.914   7.082
  402DOPC   GL2 4084  22.269   0.744   6.822
  402DOPC   C1A 4085  22.409   1.194   6.682
  402DOPC   D2A 4086  22.389   1.514   6.392
  402DOPC   C3A 4087  22.199   1.604   6.092
  402DOPC   C4A 4088  21.909   1.334   5.882
  402DOPC   C1B 4089  22.309   0.494   6.592
  402DOPC   D2B 4090  22.599   0.184   6.752
  402DOPC   C3B 4091  22.759  -0.126   6.572
  402DOPC   C4B 4092  22.469  -0.396   6.512
  403DOPC   NC3 4093  23.549   2.584   3.182
  403DOPC   PO4 4094  23.959   2.804   3.462
  403DOPC   GL1 4095  24.199   2.814   3.852
  403DOPC   GL2 4096  24.209   3.144   4.002
  403DOPC   C1A 4097  24.039   2.694   4.192
  403DOPC   D2A 4098  24.099   2.764   4.642
  403DOPC   C3A 4099  23.749   2.904   4.852
  403DOPC   C4A 4100  23.449   2.714   4.762
  403DOPC   C1B 4101  24.709   3.214   4.062
  403DOPC   D2B 4102  24.979   3.094   4.502
  403DOPC   C3B 4103  24.749   3.244   4.802
  403DOPC   C4B 4104  24.269   3.264   5.042
  404DOPC   NC3 4105   8.849   4.464   8.122
  404DOPC   PO4 4106   8.929   4.144   7.832
  404DOPC   GL1 4107   9.049   3.794   7.522
  404DOPC   GL2 4108   8.859   4.104   7.362
  404DOPC   C1A 4109   9.019   3.624   7.102
  404DOPC   D2A 4110   8.979   3.544   6.612
  404DOPC   C3A 4111   9.079   3.894   6.282
  404DOPC   C4A 4112   8.849   3.934   5.882
  404DOPC   C1B 4113   9.179   4.424   7.242
  404DOPC   D2B 4114   9.229   4.504   6.762
  404DOPC   C3B 4115   9.159   4.384   6.342
  404DOPC   C4B 4116   9.379   4.494   6.022
  405DOPC   NC3 4117  16.009  20.484   8.082
  405DOPC   PO4 4118  15.679  20.684   7.912
  405DOPC   GL1 4119  15.439  20.844   7.532
  405DOPC   GL2 4120  15.259  21.134   7.472
  405DOPC   C1A 4121  15.639  20.884   7.172
  405DOPC   D2A 4122  15.879  21.024   6.812
  405DOPC   C3A 4123  15.749  21.304   6.602
  405DOPC   C4A 4124  15.639  21.334   6.122
  405DOPC   C1B 4125  14.939  21.224   7.242
  405DOPC   D2B 4126  14.729  21.284   6.872
  405DOPC   C3B 4127  14.289  21.401   6.812
  405DOPC   C4B 4128  13.939  21.204   6.622
  406DOPC   NC3 4129  15.289   3.054   4.432
  406DOPC   PO4 4130  15.619   3.114   4.392
  406DOPC   GL1 4131  15.589   3.234   4.812
  406DOPC   GL2 4132  15.789   3.464   4.912
  406DOPC   C1A 4133  15.649   3.144   5.272
  406DOPC   D2A 4134  15.629   2.894   5.632
  406DOPC   C3A 4135  15.289   2.604   5.652
  406DOPC   C4A 4136  15.299   2.144   5.642
  406DOPC   C1B 4137  15.909   3.694   5.212
  406DOPC   D2B 4138  15.999   3.914   5.622
  406DOPC   C3B 4139  16.179   3.674   5.972
  406DOPC   C4B 4140  16.229   3.164   6.102
  407DOPC   NC3 4141  21.569  16.734   3.552
  407DOPC   PO4 4142  21.249  16.964   3.692
  407DOPC   GL1 4143  21.089  17.184   4.092
  407DOPC   GL2 4144  21.339  17.094   4.262
  407DOPC   C1A 4145  20.849  17.334   4.452
  407DOPC   D2A 4146  20.849  17.354   4.882
  407DOPC   C3A 4147  20.779  17.814   5.102
  407DOPC   C4A 4148  20.389  17.984   5.292
  407DOPC   C1B 4149  21.029  16.854   4.522
  407DOPC   D2B 4150  20.589  16.934   4.392
  407DOPC   C3B 4151  20.319  17.124   4.762
  407DOPC   C4B 4152  19.909  17.334   4.712
  408DOPC   NC3 4153  10.629   7.074   3.622
  408DOPC   PO4 4154  10.749   7.114   4.032
  408DOPC   GL1 4155  10.749   7.104   4.532
  408DOPC   GL2 4156  10.369   6.894   4.622
  408DOPC   C1A 4157  10.669   6.924   4.992
  408DOPC   D2A 4158  10.649   7.064   5.292
  408DOPC   C3A 4159  10.399   6.904   5.502
  408DOPC   C4A 4160  10.279   6.974   5.882
  408DOPC   C1B 4161  10.049   6.984   4.992
  408DOPC   D2B 4162   9.939   6.794   5.402
  408DOPC   C3B 4163   9.709   6.404   5.602
  408DOPC   C4B 4164   9.969   6.054   5.692
  409DOPC   NC3 4165  18.179   2.064   7.802
  409DOPC   PO4 4166  17.979   2.274   7.522
  409DOPC   GL1 4167  17.799   2.464   7.222
  409DOPC   GL2 4168  17.939   2.794   7.212
  409DOPC   C1A 4169  17.819   2.534   6.792
  409DOPC   D2A 4170  17.659   2.674   6.352
  409DOPC   C3A 4171  17.829   2.494   5.942
  409DOPC   C4A 4172  17.919   2.254   5.562
  409DOPC   C1B 4173  17.789   3.004   6.912
  409DOPC   D2B 4174  17.639   3.114   6.482
  409DOPC   C3B 4175  17.939   3.464   6.252
  409DOPC   C4B 4176  17.789   3.954   6.372
  410DOPC   NC3 4177  17.289  16.244   7.602
  410DOPC   PO4 4178  17.049  16.674   7.692
  410DOPC   GL1 4179  17.049  16.784   7.312
  410DOPC   GL2 4180  17.169  16.494   7.202
  410DOPC   C1A 4181  16.859  16.734   6.932
  410DOPC   D2A 4182  16.779  16.634   6.492
  410DOPC   C3A 4183  16.409  16.534   6.322
  410DOPC   C4A 4184  16.129  16.314   6.112
  410DOPC   C1B 4185  17.229  16.534   6.722
  410DOPC   D2B 4186  17.289  16.604   6.352
  410DOPC   C3B 4187  17.179  16.314   6.072
  410DOPC   C4B 4188  17.119  16.044   5.812
  411DOPC   NC3 4189  13.919   8.974   4.332
  411DOPC   PO4 4190  13.669   8.844   4.632
  411DOPC   GL1 4191  13.299   8.924   4.992
  411DOPC   GL2 4192  12.929   8.864   5.062
  411DOPC   C1A 4193  13.309   8.754   5.412
  411DOPC   D2A 4194  13.259   8.834   5.902
  411DOPC   C3A 4195  12.949   8.494   6.142
  411DOPC   C4A 4196  12.609   8.164   6.232
  411DOPC   C1B 4197  13.039   9.154   5.472
  411DOPC   D2B 4198  13.099   9.314   5.982
  411DOPC   C3B 4199  13.129   9.644   6.212
  411DOPC   C4B 4200  13.019   9.984   6.262
  412DOPC   NC3 4201  15.019  23.701   7.832
  412DOPC   PO4 4202  15.279  23.561   7.412
  412DOPC   GL1 4203  15.389  23.391   7.062
  412DOPC   GL2 4204  15.389  23.651   6.912
  412DOPC   C1A 4205  15.269  23.211   6.702
  412DOPC   D2A 4206  15.179  22.881   6.502
  412DOPC   C3A 4207  14.789  22.901   6.192
  412DOPC   C4A 4208  14.509  22.781   5.862
  412DOPC   C1B 4209  15.439  23.581   6.392
  412DOPC   D2B 4210  15.169  23.271   6.172
  412DOPC   C3B 4211  14.849  23.241   5.862
  412DOPC   C4B 4212  14.689  23.331   5.522
  413DOPC   NC3 4213   1.629  10.404   7.722
  413DOPC   PO4 4214   1.819  10.154   7.312
  413DOPC   GL1 4215   2.159  10.164   6.832
  413DOPC   GL2 4216   2.459   9.924   6.902
  413DOPC   C1A 4217   2.399  10.194   6.462
  413DOPC   D2A 4218   2.679  10.454   6.092
  413DOPC   C3A 4219   2.799  10.394   5.672
  413DOPC   C4A 4220   3.199  10.374   5.422
  413DOPC   C1B 4221   2.389   9.674   6.522
  413DOPC   D2B 4222   2.089   9.804   6.162
  413DOPC   C3B 4223   2.279   9.914   5.782
  413DOPC   C4B 4224   2.309  10.234   5.392
  414DOPC   NC3 4225  12.149  24.481   8.472
  414DOPC   PO4 4226  12.149  24.171   8.322
  414DOPC   GL1 4227  12.119  24.041   7.802
  414DOPC   GL2 4228  12.419  23.751   7.622
  414DOPC   C1A 4229  11.919  23.891   7.412
  414DOPC   D2A 4230  11.819  23.731   6.962
  414DOPC   C3A 4231  11.719  24.071   6.702
  414DOPC   C4A 4232  11.749  24.121   6.212
  414DOPC   C1B 4233  12.329  23.881   7.132
  414DOPC   D2B 4234  12.219  24.161   6.852
  414DOPC   C3B 4235  11.929  24.371   7.062
  414DOPC   C4B 4236  11.419  24.351   7.012
  415DOPC   NC3 4237  22.679   5.024   7.212
  415DOPC   PO4 4238  22.219   5.184   7.392
  415DOPC   GL1 4239  22.379   5.394   6.972
  415DOPC   GL2 4240  22.059   5.354   6.922
  415DOPC   C1A 4241  22.419   5.574   6.612
  415DOPC   D2A 4242  22.539   5.714   6.302
  415DOPC   C3A 4243  22.619   5.824   5.922
  415DOPC   C4A 4244  22.259   5.764   5.722
  415DOPC   C1B 4245  22.349   5.044   6.622
  415DOPC   D2B 4246  22.699   4.774   6.512
  415DOPC   C3B 4247  23.199   4.964   6.382
  415DOPC   C4B 4248  23.489   5.234   6.142
  416DOPC   NC3 4249   2.799   8.904   7.122
  416DOPC   PO4 4250   3.229   9.004   6.972
  416DOPC   GL1 4251   3.329   9.164   6.642
  416DOPC   GL2 4252   3.449   8.914   6.412
  416DOPC   C1A 4253   3.619   9.404   6.482
  416DOPC   D2A 4254   3.799   9.564   6.182
  416DOPC   C3A 4255   3.769   9.934   6.002
  416DOPC   C4A 4256   3.619  10.344   6.102
  416DOPC   C1B 4257   3.759   9.014   6.012
  416DOPC   D2B 4258   3.579   9.174   5.592
  416DOPC   C3B 4259   3.609   9.624   5.602
  416DOPC   C4B 4260   4.029   9.914   5.542
  417DOPC   NC3 4261  19.909   7.474   7.782
  417DOPC   PO4 4262  20.089   7.374   7.372
  417DOPC   GL1 4263  19.919   7.374   6.972
  417DOPC   GL2 4264  19.739   7.064   6.922
  417DOPC   C1A 4265  19.839   7.704   6.772
  417DOPC   D2A 4266  19.999   8.054   6.752
  417DOPC   C3A 4267  20.169   8.194   6.282
  417DOPC   C4A 4268  20.369   8.264   5.802
  417DOPC   C1B 4269  19.729   6.954   6.442
  417DOPC   D2B 4270  19.919   6.734   6.092
  417DOPC   C3B 4271  19.739   6.274   6.102
  417DOPC   C4B 4272  19.609   5.884   5.852
  418DOPC   NC3 4273  18.649  15.694   3.602
  418DOPC   PO4 4274  18.629  16.044   3.792
  418DOPC   GL1 4275  18.779  15.974   4.192
  418DOPC   GL2 4276  19.109  15.954   4.112
  418DOPC   C1A 4277  18.709  15.814   4.652
  418DOPC   D2A 4278  18.789  15.584   4.962
  418DOPC   C3A 4279  18.569  15.524   5.352
  418DOPC   C4A 4280  18.489  15.984   5.522
  418DOPC   C1B 4281  19.129  16.074   4.572
  418DOPC   D2B 4282  19.379  16.084   5.022
  418DOPC   C3B 4283  19.479  16.234   5.442
  418DOPC   C4B 4284  19.499  15.884   5.632
  419DOPC   NC3 4285  13.009  22.411   4.622
  419DOPC   PO4 4286  13.009  22.871   4.632
  419DOPC   GL1 4287  13.129  22.631   5.112
  419DOPC   GL2 4288  12.869  22.361   5.122
  419DOPC   C1A 4289  13.209  22.611   5.592
  419DOPC   D2A 4290  13.019  22.861   6.012
  419DOPC   C3A 4291  12.999  23.251   6.052
  419DOPC   C4A 4292  12.609  23.441   6.252
  419DOPC   C1B 4293  12.409  22.471   5.202
  419DOPC   D2B 4294  12.169  22.741   5.502
  419DOPC   C3B 4295  11.679  22.721   5.472
  419DOPC   C4B 4296  11.249  22.701   5.632
  420DOPC   NC3 4297  22.299  15.444   7.392
  420DOPC   PO4 4298  21.999  14.984   7.412
  420DOPC   GL1 4299  21.749  15.084   7.182
  420DOPC   GL2 4300  21.609  14.774   7.022
  420DOPC   C1A 4301  21.579  15.264   6.672
  420DOPC   D2A 4302  21.509  14.974   6.332
  420DOPC   C3A 4303  21.839  15.044   5.942
  420DOPC   C4A 4304  22.019  14.844   5.582
  420DOPC   C1B 4305  21.259  14.654   6.752
  420DOPC   D2B 4306  21.089  14.574   6.402
  420DOPC   C3B 4307  21.209  14.414   6.022
  420DOPC   C4B 4308  21.129  14.364   5.602
  421DOPC   NC3 4309  10.109  17.924   4.332
  421DOPC   PO4 4310  10.319  17.704   4.722
  421DOPC   GL1 4311  10.319  17.424   5.102
  421DOPC   GL2 4312  10.359  17.584   5.392
  421DOPC   C1A 4313  10.309  17.074   5.242
  421DOPC   D2A 4314  10.279  16.854   5.702
  421DOPC   C3A 4315   9.939  17.064   5.862
  421DOPC   C4A 4316   9.779  17.024   6.252
  421DOPC   C1B 4317  10.379  17.424   5.792
  421DOPC   D2B 4318  10.459  17.154   6.122
  421DOPC   C3B 4319  10.639  17.344   6.532
  421DOPC   C4B 4320  10.539  17.394   7.042
  422DOPC   NC3 4321  18.349  10.114   7.802
  422DOPC   PO4 4322  17.929  10.194   7.952
  422DOPC   GL1 4323  17.799   9.954   7.582
  422DOPC   GL2 4324  17.579   9.704   7.662
  422DOPC   C1A 4325  17.729   9.834   7.182
  422DOPC   D2A 4326  17.549   9.774   6.782
  422DOPC   C3A 4327  17.169   9.574   6.832
  422DOPC   C4A 4328  16.909   9.414   6.542
  422DOPC   C1B 4329  17.819   9.404   7.362
  422DOPC   D2B 4330  18.209   9.504   7.042
  422DOPC   C3B 4331  18.179   9.484   6.582
  422DOPC   C4B 4332  18.409   9.154   6.252
  423DOPC   NC3 4333  14.989  -0.456   8.132
  423DOPC   PO4 4334  15.339  -0.256   7.852
  423DOPC   GL1 4335  15.379  -0.156   7.422
  423DOPC   GL2 4336  15.219   0.104   7.482
  423DOPC   C1A 4337  15.369  -0.036   6.982
  423DOPC   D2A 4338  15.299  -0.116   6.572
  423DOPC   C3A 4339  15.119   0.194   6.342
  423DOPC   C4A 4340  15.179   0.674   6.262
  423DOPC   C1B 4341  14.819   0.064   7.252
  423DOPC   D2B 4342  14.459   0.444   7.082
  423DOPC   C3B 4343  14.499   0.904   6.982
  423DOPC   C4B 4344  14.289   1.124   6.712
  424DOPC   NC3 4345   7.879  16.644   8.032
  424DOPC   PO4 4346   8.279  16.384   8.172
  424DOPC   GL1 4347   8.539  16.444   7.852
  424DOPC   GL2 4348   8.339  16.354   7.682
  424DOPC   C1A 4349   8.579  16.754   7.432
  424DOPC   D2A 4350   8.419  16.994   7.102
  424DOPC   C3A 4351   8.359  16.744   6.802
  424DOPC   C4A 4352   7.829  16.574   6.702
  424DOPC   C1B 4353   8.279  16.234   7.282
  424DOPC   D2B 4354   8.269  16.234   6.862
  424DOPC   C3B 4355   8.609  16.264   6.522
  424DOPC   C4B 4356   8.999  16.354   6.532
  425DOPC   NC3 4357  -0.109  14.254   3.742
  425DOPC   PO4 4358   0.011  13.804   3.802
  425DOPC   GL1 4359   0.099  13.664   4.222
  425DOPC   GL2 4360   0.509  13.654   4.222
  425DOPC   C1A 4361   0.259  13.534   4.652
  425DOPC   D2A 4362   0.119  13.304   5.002
  425DOPC   C3A 4363   0.089  13.634   5.272
  425DOPC   C4A 4364   0.109  14.144   5.262
  425DOPC   C1B 4365   0.779  13.984   4.492
  425DOPC   D2B 4366   0.879  14.234   4.812
  425DOPC   C3B 4367   0.669  14.244   5.272
  425DOPC   C4B 4368   0.519  13.854   5.492
  426DOPC   NC3 4369   2.579  16.434   3.732
  426DOPC   PO4 4370   2.109  16.474   3.752
  426DOPC   GL1 4371   2.049  16.204   4.172
  426DOPC   GL2 4372   2.299  15.904   4.262
  426DOPC   C1A 4373   1.949  16.214   4.632
  426DOPC   D2A 4374   1.799  16.254   5.062
  426DOPC   C3A 4375   1.729  16.684   5.292
  426DOPC   C4A 4376   1.659  16.874   5.672
  426DOPC   C1B 4377   2.419  16.024   4.742
  426DOPC   D2B 4378   2.539  15.974   5.192
  426DOPC   C3B 4379   2.329  16.214   5.522
  426DOPC   C4B 4380   2.209  16.644   5.432
  427DOPC   NC3 4381  22.509   6.914   8.022
  427DOPC   PO4 4382  22.589   7.214   7.612
  427DOPC   GL1 4383  22.459   7.204   7.132
  427DOPC   GL2 4384  22.619   7.254   6.812
  427DOPC   C1A 4385  22.269   6.964   6.792
  427DOPC   D2A 4386  22.249   6.584   6.542
  427DOPC   C3A 4387  21.779   6.464   6.502
  427DOPC   C4A 4388  21.659   6.044   6.532
  427DOPC   C1B 4389  22.569   7.604   6.392
  427DOPC   D2B 4390  22.329   7.654   6.062
  427DOPC   C3B 4391  22.309   7.264   5.782
  427DOPC   C4B 4392  22.539   6.834   5.802
  428DOPC   NC3 4393   4.289   3.914   7.502
  428DOPC   PO4 4394   4.489   3.494   7.412
  428DOPC   GL1 4395   4.499   3.354   7.032
  428DOPC   GL2 4396   4.479   3.554   6.852
  428DOPC   C1A 4397   4.689   3.054   6.742
  428DOPC   D2A 4398   4.479   2.634   6.762
  428DOPC   C3A 4399   4.109   2.564   6.352
  428DOPC   C4A 4400   3.759   2.424   6.042
  428DOPC   C1B 4401   4.409   3.444   6.432
  428DOPC   D2B 4402   4.639   3.294   6.032
  428DOPC   C3B 4403   4.979   3.044   6.092
  428DOPC   C4B 4404   5.429   2.934   6.192
  429DOPC   NC3 4405  19.879  13.584   7.782
  429DOPC   PO4 4406  19.739  13.834   7.542
  429DOPC   GL1 4407  19.649  13.754   7.102
  429DOPC   GL2 4408  19.849  13.674   6.812
  429DOPC   C1A 4409  19.429  13.384   6.902
  429DOPC   D2A 4410  19.099  13.304   6.652
  429DOPC   C3A 4411  18.859  13.004   6.642
  429DOPC   C4A 4412  18.679  12.674   6.772
  429DOPC   C1B 4413  20.179  13.604   6.752
  429DOPC   D2B 4414  20.279  13.334   6.322
  429DOPC   C3B 4415  19.919  13.574   6.072
  429DOPC   C4B 4416  19.549  13.924   5.902
  430DOPC   NC3 4417   5.979  11.334   3.262
  430DOPC   PO4 4418   5.989  11.624   3.482
  430DOPC   GL1 4419   5.919  11.484   3.952
  430DOPC   GL2 4420   6.159  11.304   4.202
  430DOPC   C1A 4421   5.819  11.614   4.422
  430DOPC   D2A 4422   5.899  11.794   4.792
  430DOPC   C3A 4423   5.779  11.594   5.182
  430DOPC   C4A 4424   5.569  11.164   5.272
  430DOPC   C1B 4425   6.039  11.284   4.692
  430DOPC   D2B 4426   5.999  10.954   5.002
  430DOPC   C3B 4427   6.219  10.804   5.372
  430DOPC   C4B 4428   6.299  10.864   5.792
  431DOPC   NC3 4429   1.419  14.664   3.422
  431DOPC   PO4 4430   1.649  15.034   3.512
  431DOPC   GL1 4431   1.709  14.984   3.932
  431DOPC   GL2 4432   1.539  14.734   4.182
  431DOPC   C1A 4433   2.039  14.864   4.202
  431DOPC   D2A 4434   2.339  14.494   4.332
  431DOPC   C3A 4435   2.279  14.444   4.792
  431DOPC   C4A 4436   2.409  14.284   5.152
  431DOPC   C1B 4437   1.749  14.604   4.492
  431DOPC   D2B 4438   1.849  14.704   4.972
  431DOPC   C3B 4439   1.629  14.594   5.342
  431DOPC   C4B 4440   1.329  14.354   5.452
  432DOPC   NC3 4441  25.796  22.681   7.822
  432DOPC   PO4 4442  25.796  23.091   7.592
  432DOPC   GL1 4443  25.649  23.191   7.212
  432DOPC   GL2 4444  25.389  23.401   7.252
  432DOPC   C1A 4445  25.696  23.561   6.892
  432DOPC   D2A 4446  25.976  23.601   6.672
  432DOPC   C3A 4447  25.786  23.751   6.382
  432DOPC   C4A 4448  25.666  23.641   6.102
  432DOPC   C1B 4449  25.299  23.171   6.842
  432DOPC   D2B 4450  25.249  23.261   6.462
  432DOPC   C3B 4451  25.119  23.431   6.142
  432DOPC   C4B 4452  25.279  23.511   5.772
  433DOPC   NC3 4453   5.919   9.854   7.162
  433DOPC   PO4 4454   5.469   9.824   7.262
  433DOPC   GL1 4455   5.429  10.174   6.932
  433DOPC   GL2 4456   5.059  10.234   6.832
  433DOPC   C1A 4457   5.359  10.154   6.422
  433DOPC   D2A 4458   5.179   9.864   6.182
  433DOPC   C3A 4459   5.319   9.894   5.752
  433DOPC   C4A 4460   5.099   9.794   5.382
  433DOPC   C1B 4461   4.889  10.334   6.402
  433DOPC   D2B 4462   4.589  10.474   6.362
  433DOPC   C3B 4463   4.549  10.494   5.872
  433DOPC   C4B 4464   4.489  10.514   5.372
  434DOPC   NC3 4465  25.936  14.454   8.372
  434DOPC   PO4 4466  25.646  14.474   7.952
  434DOPC   GL1 4467  25.826  14.234   7.582
  434DOPC   GL2 4468  25.539  14.214   7.392
  434DOPC   C1A 4469  25.956  14.154   7.152
  434DOPC   D2A 4470  26.006  13.674   6.972
  434DOPC   C3A 4471  25.666  13.454   6.792
  434DOPC   C4A 4472  25.389  13.194   6.652
  434DOPC   C1B 4473  25.269  14.334   6.952
  434DOPC   D2B 4474  25.279  14.184   6.532
  434DOPC   C3B 4475  25.089  13.914   6.162
  434DOPC   C4B 4476  24.929  13.544   5.952
  435DOPC   NC3 4477  14.119   2.224   4.452
  435DOPC   PO4 4478  13.879   1.844   4.472
  435DOPC   GL1 4479  13.609   1.694   4.702
  435DOPC   GL2 4480  13.319   1.814   4.742
  435DOPC   C1A 4481  13.609   1.464   5.142
  435DOPC   D2A 4482  13.559   1.394   5.572
  435DOPC   C3A 4483  13.859   1.634   5.782
  435DOPC   C4A 4484  14.089   1.914   5.822
  435DOPC   C1B 4485  13.569   1.934   5.242
  435DOPC   D2B 4486  13.529   2.054   5.772
  435DOPC   C3B 4487  13.749   2.264   6.102
  435DOPC   C4B 4488  13.989   2.494   6.372
  436DOPC   NC3 4489   6.919  22.171   3.932
  436DOPC   PO4 4490   6.989  21.771   4.092
  436DOPC   GL1 4491   7.049  21.901   4.522
  436DOPC   GL2 4492   7.019  22.171   4.502
  436DOPC   C1A 4493   6.999  21.931   5.032
  436DOPC   D2A 4494   6.769  21.751   5.322
  436DOPC   C3A 4495   6.949  21.631   5.752
  436DOPC   C4A 4496   6.909  21.244   5.942
  436DOPC   C1B 4497   7.039  22.461   4.762
  436DOPC   D2B 4498   6.879  22.451   5.212
  436DOPC   C3B 4499   6.489  22.261   5.222
  436DOPC   C4B 4500   5.989  22.311   5.352
  437DOPC   NC3 4501   4.569   0.264   7.922
  437DOPC   PO4 4502   4.249   0.114   7.732
  437DOPC   GL1 4503   4.459   0.154   7.392
  437DOPC   GL2 4504   4.269   0.424   7.212
  437DOPC   C1A 4505   4.809   0.174   7.152
  437DOPC   D2A 4506   5.199  -0.126   6.892
  437DOPC   C3A 4507   5.449  -0.126   6.422
  437DOPC   C4A 4508   5.329  -0.206   5.982
  437DOPC   C1B 4509   4.449   0.464   6.702
  437DOPC   D2B 4510   4.729   0.774   6.552
  437DOPC   C3B 4511   4.679   1.184   6.272
  437DOPC   C4B 4512   4.899   1.584   6.092
  438DOPC   NC3 4513   2.789   3.304   3.852
  438DOPC   PO4 4514   2.569   3.034   3.752
  438DOPC   GL1 4515   2.489   2.874   4.072
  438DOPC   GL2 4516   2.669   2.974   4.252
  438DOPC   C1A 4517   2.239   2.884   4.442
  438DOPC   D2A 4518   1.919   3.044   4.702
  438DOPC   C3A 4519   1.599   2.874   4.722
  438DOPC   C4A 4520   1.159   2.984   4.652
  438DOPC   C1B 4521   2.609   2.954   4.692
  438DOPC   D2B 4522   2.739   2.854   5.092
  438DOPC   C3B 4523   3.099   2.594   5.352
  438DOPC   C4B 4524   3.389   2.344   5.702
  439DOPC   NC3 4525  25.509   5.434   6.732
  439DOPC   PO4 4526  25.089   5.334   6.742
  439DOPC   GL1 4527  25.039   5.434   6.332
  439DOPC   GL2 4528  24.729   5.514   6.172
  439DOPC   C1A 4529  25.129   5.084   5.962
  439DOPC   D2A 4530  25.379   5.164   5.492
  439DOPC   C3A 4531  25.289   5.464   5.182
  439DOPC   C4A 4532  25.259   5.394   4.792
  439DOPC   C1B 4533  24.319   5.704   6.362
  439DOPC   D2B 4534  23.839   5.694   6.472
  439DOPC   C3B 4535  23.419   5.774   6.182
  439DOPC   C4B 4536  22.989   5.964   6.252
  440DOPC   NC3 4537  24.019   8.624   3.312
  440DOPC   PO4 4538  23.789   8.914   3.182
  440DOPC   GL1 4539  23.709   8.904   3.612
  440DOPC   GL2 4540  23.529   8.634   3.712
  440DOPC   C1A 4541  23.709   8.904   4.062
  440DOPC   D2A 4542  23.979   8.744   4.262
  440DOPC   C3A 4543  24.009   8.954   4.712
  440DOPC   C4A 4544  23.889   9.364   4.892
  440DOPC   C1B 4545  23.879   8.384   3.892
  440DOPC   D2B 4546  24.109   8.034   3.862
  440DOPC   C3B 4547  24.009   7.644   4.112
  440DOPC   C4B 4548  24.139   7.584   4.532
  441DOPC   NC3 4549  20.019  17.444   7.562
  441DOPC   PO4 4550  20.399  17.664   7.362
  441DOPC   GL1 4551  20.449  17.524   6.932
  441DOPC   GL2 4552  20.719  17.384   7.062
  441DOPC   C1A 4553  20.709  17.614   6.572
  441DOPC   D2A 4554  20.989  17.944   6.342
  441DOPC   C3A 4555  20.899  17.924   6.002
  441DOPC   C4A 4556  20.929  18.014   5.522
  441DOPC   C1B 4557  20.589  17.094   6.722
  441DOPC   D2B 4558  20.749  16.694   6.502
  441DOPC   C3B 4559  20.859  16.764   6.042
  441DOPC   C4B 4560  21.109  17.084   5.792
  442DOPC   NC3 4561  14.219  23.841   8.042
  442DOPC   PO4 4562  14.639  24.041   7.742
  442DOPC   GL1 4563  14.879  23.911   7.422
  442DOPC   GL2 4564  14.669  23.581   7.322
  442DOPC   C1A 4565  14.819  23.971   7.102
  442DOPC   D2A 4566  14.709  24.131   6.672
  442DOPC   C3A 4567  14.439  23.781   6.522
  442DOPC   C4A 4568  14.109  23.431   6.522
  442DOPC   C1B 4569  14.829  23.521   6.922
  442DOPC   D2B 4570  14.999  23.661   6.572
  442DOPC   C3B 4571  15.159  23.991   6.582
  442DOPC   C4B 4572  15.279  24.141   7.052
  443DOPC   NC3 4573  23.339   3.304   7.202
  443DOPC   PO4 4574  23.019   3.444   7.162
  443DOPC   GL1 4575  23.159   3.484   6.742
  443DOPC   GL2 4576  23.019   3.854   6.632
  443DOPC   C1A 4577  23.509   3.574   6.402
  443DOPC   D2A 4578  23.519   3.494   5.962
  443DOPC   C3A 4579  23.209   3.794   5.792
  443DOPC   C4A 4580  22.949   4.064   5.942
  443DOPC   C1B 4581  22.929   3.654   6.182
  443DOPC   D2B 4582  22.609   3.714   5.852
  443DOPC   C3B 4583  22.229   3.784   5.752
  443DOPC   C4B 4584  21.909   3.884   5.962
  444DOPC   NC3 4585  17.469  20.674   7.632
  444DOPC   PO4 4586  17.839  20.614   7.532
  444DOPC   GL1 4587  17.649  20.724   7.142
  444DOPC   GL2 4588  17.789  20.464   7.062
  444DOPC   C1A 4589  17.729  20.904   6.712
  444DOPC   D2A 4590  17.779  20.884   6.252
  444DOPC   C3A 4591  17.519  21.224   5.952
  444DOPC   C4A 4592  17.709  21.471   5.652
  444DOPC   C1B 4593  17.579  20.434   6.632
  444DOPC   D2B 4594  17.789  20.404   6.232
  444DOPC   C3B 4595  17.789  20.624   5.822
  444DOPC   C4B 4596  17.369  20.714   5.772
  445DOPC   NC3 4597  25.159   4.834   6.782
  445DOPC   PO4 4598  25.049   4.594   7.172
  445DOPC   GL1 4599  25.239   4.174   6.912
  445DOPC   GL2 4600  25.349   4.424   6.672
  445DOPC   C1A 4601  25.449   3.884   6.542
  445DOPC   D2A 4602  25.619   4.034   6.222
  445DOPC   C3A 4603  25.706   3.674   5.932
  445DOPC   C4A 4604  25.649   3.274   5.742
  445DOPC   C1B 4605  25.169   4.214   6.392
  445DOPC   D2B 4606  25.179   4.364   5.992
  445DOPC   C3B 4607  25.489   4.194   5.732
  445DOPC   C4B 4608  25.876   4.434   5.492
  446DOPC   NC3 4609  15.759  17.134   4.352
  446DOPC   PO4 4610  15.749  16.734   4.322
  446DOPC   GL1 4611  15.829  16.734   4.782
  446DOPC   GL2 4612  15.889  16.454   4.792
  446DOPC   C1A 4613  15.889  16.854   5.162
  446DOPC   D2A 4614  16.159  16.894   5.462
  446DOPC   C3A 4615  16.339  16.644   5.812
  446DOPC   C4A 4616  16.779  16.514   5.962
  446DOPC   C1B 4617  15.829  16.104   5.052
  446DOPC   D2B 4618  15.869  15.864   5.372
  446DOPC   C3B 4619  15.929  16.014   5.752
  446DOPC   C4B 4620  15.789  15.914   6.262
  447DOPC   NC3 4621  21.599   9.154   6.612
  447DOPC   PO4 4622  21.309   9.394   6.862
  447DOPC   GL1 4623  21.119   9.254   6.422
  447DOPC   GL2 4624  20.749   9.364   6.392
  447DOPC   C1A 4625  21.099   9.294   6.042
  447DOPC   D2A 4626  21.039   9.324   5.612
  447DOPC   C3A 4627  21.429   8.994   5.502
  447DOPC   C4A 4628  21.829   9.004   5.492
  447DOPC   C1B 4629  20.799   9.664   5.982
  447DOPC   D2B 4630  20.889   9.814   5.522
  447DOPC   C3B 4631  21.299   9.774   5.432
  447DOPC   C4B 4632  21.689   9.784   5.082
  448DOPC   NC3 4633  25.836   4.004  11.412
  448DOPC   PO4 4634  25.439   4.154  11.442
  448DOPC   GL1 4635  25.559   4.034  11.882
  448DOPC   GL2 4636  25.269   4.094  11.982
  448DOPC   C1A 4637  25.756   4.154  12.332
  448DOPC   D2A 4638  25.706   4.204  12.762
  448DOPC   C3A 4639  25.629   4.164  13.232
  448DOPC   C4A 4640  25.726   4.394  13.582
  448DOPC   C1B 4641  25.229   4.304  12.352
  448DOPC   D2B 4642  25.249   4.334  12.762
  448DOPC   C3B 4643  24.859   4.474  12.972
  448DOPC   C4B 4644  24.699   4.814  13.232
  449DOPC   NC3 4645   9.969   0.854   4.142
  449DOPC   PO4 4646  10.239   1.184   4.092
  449DOPC   GL1 4647  10.209   1.354   4.472
  449DOPC   GL2 4648  10.269   1.084   4.632
  449DOPC   C1A 4649  10.359   1.544   4.832
  449DOPC   D2A 4650  10.609   1.494   5.042
  449DOPC   C3A 4651  10.589   1.884   5.412
  449DOPC   C4A 4652  10.479   2.174   5.752
  449DOPC   C1B 4653  10.059   1.184   5.032
  449DOPC   D2B 4654  10.009   0.914   5.372
  449DOPC   C3B 4655   9.679   0.934   5.622
  449DOPC   C4B 4656   9.659   0.794   6.022
  450DOPC   NC3 4657  17.239   0.444   7.692
  450DOPC   PO4 4658  17.349   0.874   7.672
  450DOPC   GL1 4659  17.549   0.924   7.382
  450DOPC   GL2 4660  17.789   1.144   7.482
  450DOPC   C1A 4661  17.639   0.814   6.972
  450DOPC   D2A 4662  17.459   0.544   6.682
  450DOPC   C3A 4663  17.479   0.574   6.192
  450DOPC   C4A 4664  17.649   0.904   5.932
  450DOPC   C1B 4665  17.729   1.354   7.102
  450DOPC   D2B 4666  17.749   1.424   6.722
  450DOPC   C3B 4667  17.699   1.764   6.392
  450DOPC   C4B 4668  17.799   2.204   6.432
  451DOPC   NC3 4669  15.429  16.384   8.412
  451DOPC   PO4 4670  15.829  16.184   8.292
  451DOPC   GL1 4671  15.579  16.214   7.922
  451DOPC   GL2 4672  15.479  16.524   7.812
  451DOPC   C1A 4673  15.629  15.934   7.502
  451DOPC   D2A 4674  15.509  15.994   7.142
  451DOPC   C3A 4675  15.539  15.774   6.752
  451DOPC   C4A 4676  15.289  15.864   6.302
  451DOPC   C1B 4677  15.449  16.594   7.362
  451DOPC   D2B 4678  15.669  16.494   7.012
  451DOPC   C3B 4679  15.849  16.874   6.872
  451DOPC   C4B 4680  15.929  17.104   6.462
  452DOPC   NC3 4681   9.159   7.654   7.712
  452DOPC   PO4 4682   8.689   7.424   7.662
  452DOPC   GL1 4683   8.649   7.654   7.342
  452DOPC   GL2 4684   8.899   7.844   7.272
  452DOPC   C1A 4685   8.329   7.864   7.132
  452DOPC   D2A 4686   7.889   7.694   7.032
  452DOPC   C3A 4687   7.789   7.604   6.572
  452DOPC   C4A 4688   7.809   7.874   6.162
  452DOPC   C1B 4689   8.819   8.124   7.042
  452DOPC   D2B 4690   8.919   8.524   6.802
  452DOPC   C3B 4691   8.979   8.564   6.392
  452DOPC   C4B 4692   9.269   8.834   6.152
  453DOPC   NC3 4693  16.999   9.524   4.282
  453DOPC   PO4 4694  17.509   9.654   4.192
  453DOPC   GL1 4695  17.799   9.574   4.492
  453DOPC   GL2 4696  17.779   9.864   4.652
  453DOPC   C1A 4697  17.709   9.494   4.942
  453DOPC   D2A 4698  17.679   9.754   5.182
  453DOPC   C3A 4699  18.029   9.574   5.492
  453DOPC   C4A 4700  18.109   9.714   6.012
  453DOPC   C1B 4701  17.939  10.134   4.962
  453DOPC   D2B 4702  18.049  10.094   5.302
  453DOPC   C3B 4703  17.789  10.194   5.672
  453DOPC   C4B 4704  17.499  10.374   5.812
  454DOPC   NC3 4705   7.329   2.674   7.762
  454DOPC   PO4 4706   7.499   3.134   7.822
  454DOPC   GL1 4707   7.389   3.024   7.402
  454DOPC   GL2 4708   7.609   2.814   7.402
  454DOPC   C1A 4709   7.309   2.684   7.042
  454DOPC   D2A 4710   7.129   2.514   6.812
  454DOPC   C3A 4711   7.209   2.494   6.412
  454DOPC   C4A 4712   7.459   2.454   6.122
  454DOPC   C1B 4713   7.799   2.984   6.982
  454DOPC   D2B 4714   7.759   3.294   6.752
  454DOPC   C3B 4715   7.579   3.254   6.282
  454DOPC   C4B 4716   7.829   2.904   5.952
  455DOPC   NC3 4717   5.239  21.701   8.042
  455DOPC   PO4 4718   5.619  21.471   8.332
  455DOPC   GL1 4719   5.639  21.571   7.802
  455DOPC   GL2 4720   5.399  21.511   7.602
  455DOPC   C1A 4721   5.939  21.314   7.522
  455DOPC   D2A 4722   6.069  21.411   7.102
  455DOPC   C3A 4723   6.129  21.891   6.992
  455DOPC   C4A 4724   6.539  22.131   7.042
  455DOPC   C1B 4725   5.569  21.671   7.162
  455DOPC   D2B 4726   5.739  21.621   6.752
  455DOPC   C3B 4727   5.449  21.521   6.402
  455DOPC   C4B 4728   4.999  21.601   6.272
  456DOPC   NC3 4729   6.519   2.194   3.442
  456DOPC   PO4 4730   6.669   1.944   3.732
  456DOPC   GL1 4731   6.669   1.674   4.192
  456DOPC   GL2 4732   6.909   1.474   4.202
  456DOPC   C1A 4733   6.419   1.424   4.572
  456DOPC   D2A 4734   6.199   1.244   4.912
  456DOPC   C3A 4735   6.319   1.134   5.202
  456DOPC   C4A 4736   6.509   1.094   5.582
  456DOPC   C1B 4737   6.929   1.184   4.552
  456DOPC   D2B 4738   6.559   1.004   4.722
  456DOPC   C3B 4739   6.379   0.684   4.802
  456DOPC   C4B 4740   6.099   0.304   4.832
  457DOPC   NC3 4741   6.889  11.964   7.262
  457DOPC   PO4 4742   6.689  12.374   7.362
  457DOPC   GL1 4743   6.759  12.544   7.032
  457DOPC   GL2 4744   6.869  12.274   6.882
  457DOPC   C1A 4745   6.669  12.754   6.642
  457DOPC   D2A 4746   6.789  13.094   6.252
  457DOPC   C3A 4747   6.989  12.754   5.862
  457DOPC   C4A 4748   6.779  12.554   5.542
  457DOPC   C1B 4749   6.509  12.244   6.602
  457DOPC   D2B 4750   6.179  12.434   6.522
  457DOPC   C3B 4751   6.149  12.304   6.122
  457DOPC   C4B 4752   6.229  12.504   5.752
  458DOPC   NC3 4753  25.509  10.354   3.132
  458DOPC   PO4 4754  25.379  10.744   3.402
  458DOPC   GL1 4755  25.419  10.544   3.762
  458DOPC   GL2 4756  25.059  10.514   3.802
  458DOPC   C1A 4757  25.489  10.454   4.152
  458DOPC   D2A 4758  25.756  10.324   4.502
  458DOPC   C3A 4759  25.696  10.314   4.912
  458DOPC   C4A 4760  25.349  10.464   5.152
  458DOPC   C1B 4761  24.849  10.334   4.062
  458DOPC   D2B 4762  24.799  10.264   4.492
  458DOPC   C3B 4763  24.679   9.824   4.682
  458DOPC   C4B 4764  24.619   9.924   5.132
  459DOPC   NC3 4765  10.079   8.574   8.262
  459DOPC   PO4 4766  10.499   8.674   8.382
  459DOPC   GL1 4767  10.539   8.734   7.952
  459DOPC   GL2 4768  10.759   8.674   7.742
  459DOPC   C1A 4769  10.369   8.894   7.522
  459DOPC   D2A 4770  10.219   9.004   7.162
  459DOPC   C3A 4771  10.209   9.064   6.802
  459DOPC   C4A 4772   9.809   9.124   6.582
  459DOPC   C1B 4773  11.109   8.704   7.452
  459DOPC   D2B 4774  11.109   8.884   7.032
  459DOPC   C3B 4775  11.019   8.764   6.652
  459DOPC   C4B 4776  10.709   9.034   6.632
  460DOPC   NC3 4777   1.589  14.744   7.472
  460DOPC   PO4 4778   2.049  15.044   7.352
  460DOPC   GL1 4779   2.169  15.034   6.932
  460DOPC   GL2 4780   2.129  14.754   6.782
  460DOPC   C1A 4781   2.179  15.264   6.622
  460DOPC   D2A 4782   2.429  15.224   6.232
  460DOPC   C3A 4783   2.559  15.584   5.902
  460DOPC   C4A 4784   2.739  15.914   5.712
  460DOPC   C1B 4785   2.079  14.824   6.342
  460DOPC   D2B 4786   2.389  14.854   5.922
  460DOPC   C3B 4787   2.359  15.184   5.652
  460DOPC   C4B 4788   1.839  15.424   5.562
  461DOPC   NC3 4789  24.369  14.864   3.942
  461DOPC   PO4 4790  24.809  14.924   3.772
  461DOPC   GL1 4791  24.749  15.034   4.152
  461DOPC   GL2 4792  24.509  15.294   4.192
  461DOPC   C1A 4793  24.599  15.044   4.622
  461DOPC   D2A 4794  24.479  15.264   5.032
  461DOPC   C3A 4795  24.659  15.344   5.362
  461DOPC   C4A 4796  24.569  15.284   5.832
  461DOPC   C1B 4797  24.209  15.374   4.502
  461DOPC   D2B 4798  24.229  15.724   4.662
  461DOPC   C3B 4799  24.089  15.624   4.972
  461DOPC   C4B 4800  24.169  15.474   5.452
  462DOPC   NC3 4801  19.129  20.934   3.662
  462DOPC   PO4 4802  19.509  20.644   3.642
  462DOPC   GL1 4803  19.559  20.454   3.972
  462DOPC   GL2 4804  19.869  20.534   4.162
  462DOPC   C1A 4805  19.389  20.514   4.332
  462DOPC   D2A 4806  19.099  20.644   4.692
  462DOPC   C3A 4807  18.969  20.784   5.122
  462DOPC   C4A 4808  18.989  20.984   5.502
  462DOPC   C1B 4809  20.159  20.764   4.432
  462DOPC   D2B 4810  20.439  20.514   4.692
  462DOPC   C3B 4811  20.529  20.364   5.082
  462DOPC   C4B 4812  20.589  20.104   5.452
  463DOPC   NC3 4813  10.449   3.174   8.302
  463DOPC   PO4 4814  10.629   3.024   7.902
  463DOPC   GL1 4815  10.789   3.034   7.522
  463DOPC   GL2 4816  10.669   2.764   7.292
  463DOPC   C1A 4817  10.809   3.204   7.122
  463DOPC   D2A 4818  10.669   3.244   6.772
  463DOPC   C3A 4819  10.979   3.224   6.492
  463DOPC   C4A 4820  11.049   3.414   6.182
  463DOPC   C1B 4821  10.559   2.754   6.812
  463DOPC   D2B 4822  10.719   2.774   6.412
  463DOPC   C3B 4823  10.559   3.094   6.272
  463DOPC   C4B 4824  10.259   3.324   6.492
  464DOPC   NC3 4825  16.339  25.511   7.762
  464DOPC   PO4 4826  16.219  25.941   7.642
  464DOPC   GL1 4827  16.379  25.681   7.302
  464DOPC   GL2 4828  16.659  25.481   7.312
  464DOPC   C1A 4829  16.409  25.621   6.872
  464DOPC   D2A 4830  16.399  25.361   6.552
  464DOPC   C3A 4831  16.439  25.671   6.222
  464DOPC   C4A 4832  16.739  25.651   5.922
  464DOPC   C1B 4833  16.939  25.411   7.002
  464DOPC   D2B 4834  17.099  25.241   6.562
  464DOPC   C3B 4835  16.749  25.141   6.342
  464DOPC   C4B 4836  16.519  25.191   6.052
  465DOPC   NC3 4837   9.339  20.344   4.212
  465DOPC   PO4 4838   9.479  20.244   4.552
  465DOPC   GL1 4839   9.289  20.094   4.932
  465DOPC   GL2 4840   8.929  20.194   5.032
  465DOPC   C1A 4841   9.269  19.994   5.402
  465DOPC   D2A 4842   8.899  19.984   5.652
  465DOPC   C3A 4843   8.889  20.094   6.092
  465DOPC   C4A 4844   8.699  20.304   6.412
  465DOPC   C1B 4845   8.739  20.444   5.392
  465DOPC   D2B 4846   8.649  20.484   5.842
  465DOPC   C3B 4847   8.609  20.764   6.152
  465DOPC   C4B 4848   8.629  20.884   6.532
  466DOPC   NC3 4849   6.469   8.154   3.242
  466DOPC   PO4 4850   6.409   7.744   3.492
  466DOPC   GL1 4851   6.109   7.644   3.832
  466DOPC   GL2 4852   6.159   7.444   3.982
  466DOPC   C1A 4853   5.729   7.784   4.052
  466DOPC   D2A 4854   5.349   8.044   4.162
  466DOPC   C3A 4855   5.199   7.974   4.562
  466DOPC   C4A 4856   5.169   7.874   4.942
  466DOPC   C1B 4857   6.099   7.494   4.392
  466DOPC   D2B 4858   6.499   7.544   4.762
  466DOPC   C3B 4859   6.379   7.234   5.072
  466DOPC   C4B 4860   6.039   6.984   5.142
  467DOPC   NC3 4861  14.379  19.274   8.752
  467DOPC   PO4 4862  14.279  19.234   8.282
  467DOPC   GL1 4863  14.209  18.964   7.912
  467DOPC   GL2 4864  13.949  19.094   7.682
  467DOPC   C1A 4865  14.399  18.804   7.442
  467DOPC   D2A 4866  14.559  18.794   7.012
  467DOPC   C3A 4867  14.579  18.644   6.552
  467DOPC   C4A 4868  14.899  18.344   6.462
  467DOPC   C1B 4869  13.979  19.054   7.182
  467DOPC   D2B 4870  13.709  18.694   6.982
  467DOPC   C3B 4871  13.489  18.364   7.362
  467DOPC   C4B 4872  13.379  17.884   7.252
  468DOPC   NC3 4873  15.379  24.001   7.742
  468DOPC   PO4 4874  15.789  23.901   7.712
  468DOPC   GL1 4875  15.679  23.931   7.322
  468DOPC   GL2 4876  15.869  23.781   7.092
  468DOPC   C1A 4877  15.749  24.221   6.962
  468DOPC   D2A 4878  15.769  24.551   6.602
  468DOPC   C3A 4879  15.949  24.921   6.472
  468DOPC   C4A 4880  15.789  25.161   6.252
  468DOPC   C1B 4881  15.869  23.751   6.682
  468DOPC   D2B 4882  15.889  24.061   6.342
  468DOPC   C3B 4883  15.419  24.171   6.232
  468DOPC   C4B 4884  15.079  23.901   6.082
  469DOPC   NC3 4885   9.889   1.344   7.662
  469DOPC   PO4 4886   9.819   0.904   7.502
  469DOPC   GL1 4887   9.959   0.784   7.092
  469DOPC   GL2 4888   9.659   0.544   7.012
  469DOPC   C1A 4889  10.429   0.934   6.922
  469DOPC   D2A 4890  10.669   0.994   6.572
  469DOPC   C3A 4891  10.969   0.934   6.442
  469DOPC   C4A 4892  11.099   0.954   6.052
  469DOPC   C1B 4893   9.559   0.744   6.722
  469DOPC   D2B 4894   9.549   1.104   6.362
  469DOPC   C3B 4895   9.249   1.554   6.462
  469DOPC   C4B 4896   9.129   1.994   6.232
  470DOPC   NC3 4897   8.449   0.124   7.822
  470DOPC   PO4 4898   8.109   0.244   7.632
  470DOPC   GL1 4899   8.259   0.404   7.302
  470DOPC   GL2 4900   8.289   0.744   7.102
  470DOPC   C1A 4901   8.369   0.254   6.872
  470DOPC   D2A 4902   8.429   0.254   6.542
  470DOPC   C3A 4903   8.639   0.404   6.322
  470DOPC   C4A 4904   8.539   0.624   5.892
  470DOPC   C1B 4905   8.219   0.734   6.662
  470DOPC   D2B 4906   8.409   1.004   6.342
  470DOPC   C3B 4907   8.349   1.064   5.902
  470DOPC   C4B 4908   8.599   1.034   5.562
  471DOPC   NC3 4909   1.729   7.124   7.262
  471DOPC   PO4 4910   1.909   7.304   6.852
  471DOPC   GL1 4911   2.009   7.614   6.482
  471DOPC   GL2 4912   2.109   7.954   6.322
  471DOPC   C1A 4913   1.769   7.704   6.052
  471DOPC   D2A 4914   1.619   7.454   5.662
  471DOPC   C3A 4915   1.909   7.514   5.232
  471DOPC   C4A 4916   2.259   7.444   4.932
  471DOPC   C1B 4917   2.489   7.974   6.012
  471DOPC   D2B 4918   2.619   8.284   5.702
  471DOPC   C3B 4919   2.759   8.644   5.872
  471DOPC   C4B 4920   2.819   9.004   5.872
  472DOPC   NC3 4921  21.009   8.744   3.492
  472DOPC   PO4 4922  20.639   8.674   3.762
  472DOPC   GL1 4923  20.649   8.804   4.192
  472DOPC   GL2 4924  20.639   9.134   4.342
  472DOPC   C1A 4925  20.379   8.674   4.562
  472DOPC   D2A 4926  19.939   8.734   4.612
  472DOPC   C3A 4927  19.669   8.564   4.822
  472DOPC   C4A 4928  19.399   8.824   5.102
  472DOPC   C1B 4929  20.759   9.134   4.852
  472DOPC   D2B 4930  21.039   9.044   5.152
  472DOPC   C3B 4931  21.379   8.684   5.172
  472DOPC   C4B 4932  21.339   8.294   5.462
  473DOPC   NC3 4933   3.829  13.434   3.602
  473DOPC   PO4 4934   3.439  13.644   3.682
  473DOPC   GL1 4935   3.369  13.654   4.092
  473DOPC   GL2 4936   3.149  13.874   4.182
  473DOPC   C1A 4937   3.549  13.524   4.422
  473DOPC   D2A 4938   3.689  13.234   4.652
  473DOPC   C3A 4939   3.439  13.004   4.942
  473DOPC   C4A 4940   3.179  13.054   5.312
  473DOPC   C1B 4941   3.109  13.824   4.582
  473DOPC   D2B 4942   3.299  13.554   4.892
  473DOPC   C3B 4943   3.559  13.674   5.192
  473DOPC   C4B 4944   3.499  13.944   5.642
  474DOPC   NC3 4945   3.999   6.574   7.232
  474DOPC   PO4 4946   3.829   6.814   6.882
  474DOPC   GL1 4947   4.039   6.604   6.402
  474DOPC   GL2 4948   4.199   6.294   6.432
  474DOPC   C1A 4949   4.009   6.494   5.992
  474DOPC   D2A 4950   4.069   6.164   5.762
  474DOPC   C3A 4951   3.649   5.924   5.672
  474DOPC   C4A 4952   3.159   6.144   5.502
  474DOPC   C1B 4953   4.429   6.054   6.082
  474DOPC   D2B 4954   4.849   6.164   5.932
  474DOPC   C3B 4955   4.869   6.584   5.652
  474DOPC   C4B 4956   4.729   6.724   5.322
  475DOPC   NC3 4957  22.049  18.024   7.392
  475DOPC   PO4 4958  22.269  18.394   7.422
  475DOPC   GL1 4959  22.129  18.424   7.002
  475DOPC   GL2 4960  22.289  18.114   6.862
  475DOPC   C1A 4961  22.169  18.544   6.472
  475DOPC   D2A 4962  22.369  18.304   6.212
  475DOPC   C3A 4963  22.309  18.524   5.802
  475DOPC   C4A 4964  22.169  18.754   5.492
  475DOPC   C1B 4965  21.999  18.004   6.502
  475DOPC   D2B 4966  21.829  17.974   6.122
  475DOPC   C3B 4967  21.749  17.634   5.752
  475DOPC   C4B 4968  21.619  17.414   5.482
  476DOPC   NC3 4969  14.979  15.444   4.412
  476DOPC   PO4 4970  15.399  15.444   4.212
  476DOPC   GL1 4971  15.459  15.424   4.662
  476DOPC   GL2 4972  15.839  15.454   4.782
  476DOPC   C1A 4973  15.489  15.604   5.192
  476DOPC   D2A 4974  15.499  15.424   5.592
  476DOPC   C3A 4975  15.659  15.474   6.002
  476DOPC   C4A 4976  15.459  15.404   6.392
  476DOPC   C1B 4977  16.159  15.554   5.062
  476DOPC   D2B 4978  16.229  15.524   5.562
  476DOPC   C3B 4979  16.409  15.244   5.742
  476DOPC   C4B 4980  16.469  14.794   5.932
  477DOPC   NC3 4981  14.179  13.414   5.512
  477DOPC   PO4 4982  13.979  13.844   5.472
  477DOPC   GL1 4983  13.949  14.204   5.802
  477DOPC   GL2 4984  13.889  13.974   6.162
  477DOPC   C1A 4985  14.089  14.504   6.082
  477DOPC   D2A 4986  14.149  14.514   6.412
  477DOPC   C3A 4987  14.589  14.464   6.482
  477DOPC   C4A 4988  14.829  14.014   6.642
  477DOPC   C1B 4989  14.259  14.064   6.192
  477DOPC   D2B 4990  14.469  13.744   6.382
  477DOPC   C3B 4991  14.409  13.414   6.702
  477DOPC   C4B 4992  14.449  13.074   6.872
  478DOPC   NC3 4993  15.589   5.614   3.892
  478DOPC   PO4 4994  15.419   5.514   4.392
  478DOPC   GL1 4995  15.519   5.274   4.792
  478DOPC   GL2 4996  15.469   4.984   4.892
  478DOPC   C1A 4997  15.689   5.454   5.122
  478DOPC   D2A 4998  15.589   5.554   5.502
  478DOPC   C3A 4999  15.619   5.304   5.812
  478DOPC   C4A 5000  15.829   5.014   5.952
  478DOPC   C1B 5001  15.459   5.034   5.242
  478DOPC   D2B 5002  15.189   5.344   5.362
  478DOPC   C3B 5003  15.149   5.464   5.732
  478DOPC   C4B 5004  15.059   5.204   6.052
  479DOPC   NC3 5005   1.469  17.484   7.202
  479DOPC   PO4 5006   1.209  17.664   7.352
  479DOPC   GL1 5007   1.219  17.704   6.862
  479DOPC   GL2 5008   0.959  17.624   6.762
  479DOPC   C1A 5009   1.459  17.804   6.422
  479DOPC   D2A 5010   1.659  17.834   5.932
  479DOPC   C3A 5011   2.119  17.924   5.852
  479DOPC   C4A 5012   2.409  18.184   5.482
  479DOPC   C1B 5013   1.019  17.494   6.332
  479DOPC   D2B 5014   0.619  17.394   6.072
  479DOPC   C3B 5015   0.749  17.374   5.662
  479DOPC   C4B 5016   0.789  17.194   5.292
  480DOPC   NC3 5017  23.599  24.031   8.022
  480DOPC   PO4 5018  23.149  24.011   7.962
  480DOPC   GL1 5019  23.159  23.711   7.552
  480DOPC   GL2 5020  22.849  23.621   7.602
  480DOPC   C1A 5021  23.179  23.731   7.172
  480DOPC   D2A 5022  23.349  23.941   6.802
  480DOPC   C3A 5023  23.279  23.751   6.362
  480DOPC   C4A 5024  23.239  23.521   6.022
  480DOPC   C1B 5025  22.659  23.751   7.152
  480DOPC   D2B 5026  22.319  23.801   6.862
  480DOPC   C3B 5027  22.469  23.641   6.512
  480DOPC   C4B 5028  22.819  23.631   6.222
  481DOPC   NC3 5029   6.609  12.964   3.202
  481DOPC   PO4 5030   6.759  13.304   3.422
  481DOPC   GL1 5031   6.639  13.394   3.872
  481DOPC   GL2 5032   6.799  13.624   4.022
  481DOPC   C1A 5033   6.629  13.104   4.262
  481DOPC   D2A 5034   6.969  12.894   4.502
  481DOPC   C3A 5035   6.879  12.934   4.922
  481DOPC   C4A 5036   6.939  12.924   5.302
  481DOPC   C1B 5037   6.689  13.604   4.472
  481DOPC   D2B 5038   6.769  13.354   4.742
  481DOPC   C3B 5039   6.529  13.244   5.152
  481DOPC   C4B 5040   6.459  12.964   5.642
  482DOPC   NC3 5041  13.059   2.104   8.902
  482DOPC   PO4 5042  12.849   2.144   8.382
  482DOPC   GL1 5043  13.109   2.014   7.992
  482DOPC   GL2 5044  13.029   1.774   7.782
  482DOPC   C1A 5045  13.259   2.124   7.582
  482DOPC   D2A 5046  13.589   1.994   7.262
  482DOPC   C3A 5047  13.859   2.324   7.092
  482DOPC   C4A 5048  13.959   2.734   6.872
  482DOPC   C1B 5049  13.279   1.634   7.352
  482DOPC   D2B 5050  13.449   1.474   6.912
  482DOPC   C3B 5051  13.329   1.124   6.662
  482DOPC   C4B 5052  13.289   0.854   6.292
  483DOPC   NC3 5053  12.419  19.324   4.842
  483DOPC   PO4 5054  12.779  18.964   4.822
  483DOPC   GL1 5055  12.739  18.684   5.162
  483DOPC   GL2 5056  12.849  18.834   5.372
  483DOPC   C1A 5057  12.719  18.314   5.412
  483DOPC   D2A 5058  12.779  18.074   5.722
  483DOPC   C3A 5059  12.959  18.174   6.202
  483DOPC   C4A 5060  12.949  18.484   6.492
  483DOPC   C1B 5061  12.519  18.734   5.682
  483DOPC   D2B 5062  12.259  18.774   6.032
  483DOPC   C3B 5063  11.999  18.494   6.312
  483DOPC   C4B 5064  11.639  18.284   6.312
  484DOPC   NC3 5065  10.779   4.754   4.082
  484DOPC   PO4 5066  10.819   4.544   4.382
  484DOPC   GL1 5067  10.869   4.524   4.752
  484DOPC   GL2 5068  11.209   4.414   4.662
  484DOPC   C1A 5069  10.789   4.834   5.102
  484DOPC   D2A 5070  10.899   5.164   5.452
  484DOPC   C3A 5071  10.559   5.434   5.502
  484DOPC   C4A 5072  10.379   5.704   5.762
  484DOPC   C1B 5073  11.209   4.404   5.102
  484DOPC   D2B 5074  11.509   4.354   5.402
  484DOPC   C3B 5075  11.719   4.264   5.862
  484DOPC   C4B 5076  11.929   4.544   6.092
  485DOPC   NC3 5077  18.619  15.794   7.602
  485DOPC   PO4 5078  18.319  15.444   7.742
  485DOPC   GL1 5079  18.279  15.434   7.292
  485DOPC   GL2 5080  18.339  15.264   6.942
  485DOPC   C1A 5081  18.149  15.724   6.942
  485DOPC   D2A 5082  18.009  16.174   6.992
  485DOPC   C3A 5083  17.709  16.214   6.732
  485DOPC   C4A 5084  17.419  16.034   6.502
  485DOPC   C1B 5085  18.339  15.524   6.512
  485DOPC   D2B 5086  18.539  15.474   6.072
  485DOPC   C3B 5087  18.179  15.464   5.772
  485DOPC   C4B 5088  18.059  15.364   5.302
  486DOPC   NC3 5089  12.409  14.874   5.112
  486DOPC   PO4 5090  12.089  14.584   5.202
  486DOPC   GL1 5091  12.109  14.734   5.582
  486DOPC   GL2 5092  12.119  14.454   5.802
  486DOPC   C1A 5093  12.309  15.014   5.872
  486DOPC   D2A 5094  12.389  15.304   6.152
  486DOPC   C3A 5095  12.659  15.594   6.072
  486DOPC   C4A 5096  13.029  15.864   6.032
  486DOPC   C1B 5097  11.909  14.624   6.152
  486DOPC   D2B 5098  12.139  14.874   6.322
  486DOPC   C3B 5099  12.109  15.084   6.762
  486DOPC   C4B 5100  11.809  15.324   7.102
  487DOPC   NC3 5101   7.939   5.224   7.862
  487DOPC   PO4 5102   8.049   5.534   7.532
  487DOPC   GL1 5103   8.239   5.254   7.142
  487DOPC   GL2 5104   8.129   5.104   7.312
  487DOPC   C1A 5105   8.559   5.204   6.952
  487DOPC   D2A 5106   8.759   5.684   6.832
  487DOPC   C3A 5107   8.639   5.774   6.502
  487DOPC   C4A 5108   8.869   5.894   6.102
  487DOPC   C1B 5109   7.889   4.774   7.142
  487DOPC   D2B 5110   7.959   4.594   6.752
  487DOPC   C3B 5111   7.689   4.504   6.442
  487DOPC   C4B 5112   7.369   4.344   6.282
  488DOPC   NC3 5113  12.809  19.074   8.442
  488DOPC   PO4 5114  13.299  19.054   8.282
  488DOPC   GL1 5115  13.559  18.744   7.922
  488DOPC   GL2 5116  13.529  18.504   7.902
  488DOPC   C1A 5117  13.559  18.824   7.522
  488DOPC   D2A 5118  13.469  19.194   7.262
  488DOPC   C3A 5119  13.659  19.364   6.902
  488DOPC   C4A 5120  13.519  19.664   6.592
  488DOPC   C1B 5121  13.189  18.184   7.802
  488DOPC   D2B 5122  12.909  18.254   7.512
  488DOPC   C3B 5123  12.909  18.184   7.012
  488DOPC   C4B 5124  13.099  17.884   6.572
  489DOPC   NC3 5125  14.429  15.794   8.282
  489DOPC   PO4 5126  13.959  15.654   8.182
  489DOPC   GL1 5127  14.279  15.374   8.032
  489DOPC   GL2 5128  14.439  15.114   8.262
  489DOPC   C1A 5129  14.369  15.444   7.642
  489DOPC   D2A 5130  14.269  15.584   7.172
  489DOPC   C3A 5131  13.839  15.774   7.082
  489DOPC   C4A 5132  13.439  15.854   7.132
  489DOPC   C1B 5133  14.439  14.754   8.012
  489DOPC   D2B 5134  14.579  14.504   7.742
  489DOPC   C3B 5135  14.949  14.604   7.572
  489DOPC   C4B 5136  15.379  14.754   7.582
  490DOPC   NC3 5137  19.179   8.464   7.942
  490DOPC   PO4 5138  19.319   8.054   7.732
  490DOPC   GL1 5139  18.919   7.944   7.442
  490DOPC   GL2 5140  18.799   8.354   7.372
  490DOPC   C1A 5141  18.719   8.044   7.022
  490DOPC   D2A 5142  18.799   8.104   6.522
  490DOPC   C3A 5143  18.959   8.244   6.142
  490DOPC   C4A 5144  19.089   8.304   5.852
  490DOPC   C1B 5145  19.119   8.454   7.082
  490DOPC   D2B 5146  19.099   8.524   6.632
  490DOPC   C3B 5147  18.739   8.704   6.532
  490DOPC   C4B 5148  18.639   8.664   6.092
  491DOPC   NC3 5149   1.279   0.734   7.252
  491DOPC   PO4 5150   1.689   0.574   7.242
  491DOPC   GL1 5151   1.699   0.314   6.932
  491DOPC   GL2 5152   1.829   0.204   6.902
  491DOPC   C1A 5153   1.589   0.444   6.422
  491DOPC   D2A 5154   1.439   0.634   6.022
  491DOPC   C3A 5155   1.069   0.964   6.122
  491DOPC   C4A 5156   0.949   1.424   6.012
  491DOPC   C1B 5157   2.069  -0.146   6.762
  491DOPC   D2B 5158   2.349  -0.236   6.462
  491DOPC   C3B 5159   2.419  -0.686   6.132
  491DOPC   C4B 5160   2.369  -1.126   5.962
  492DOPC   NC3 5161  13.769  16.604   4.232
  492DOPC   PO4 5162  13.409  16.434   4.452
  492DOPC   GL1 5163  13.369  16.484   4.862
  492DOPC   GL2 5164  13.489  16.204   4.922
  492DOPC   C1A 5165  13.179  16.544   5.262
  492DOPC   D2A 5166  13.219  16.744   5.652
  492DOPC   C3A 5167  13.269  17.164   5.762
  492DOPC   C4A 5168  13.479  17.634   5.792
  492DOPC   C1B 5169  13.519  16.234   5.382
  492DOPC   D2B 5170  13.539  15.934   5.792
  492DOPC   C3B 5171  13.429  15.974   6.372
  492DOPC   C4B 5172  13.509  16.154   6.752
  493DOPC   NC3 5173  13.299   9.654   8.982
  493DOPC   PO4 5174  13.489   9.874   8.642
  493DOPC   GL1 5175  13.139   9.974   8.282
  493DOPC   GL2 5176  12.819   9.854   8.202
  493DOPC   C1A 5177  13.119  10.034   7.772
  493DOPC   D2A 5178  13.029  10.304   7.412
  493DOPC   C3A 5179  12.779  10.694   7.452
  493DOPC   C4A 5180  12.319  10.974   7.462
  493DOPC   C1B 5181  12.519   9.954   7.972
  493DOPC   D2B 5182  12.509  10.214   7.622
  493DOPC   C3B 5183  12.249  10.424   7.382
  493DOPC   C4B 5184  12.199  10.724   7.062
  494DOPC   NC3 5185   3.649  11.264   7.272
  494DOPC   PO4 5186   3.519  11.684   7.192
  494DOPC   GL1 5187   3.479  11.634   6.772
  494DOPC   GL2 5188   3.529  11.894   6.722
  494DOPC   C1A 5189   3.759  11.514   6.352
  494DOPC   D2A 5190   3.849  11.524   5.842
  494DOPC   C3A 5191   4.209  11.804   5.652
  494DOPC   C4A 5192   4.309  12.114   5.402
  494DOPC   C1B 5193   3.489  11.904   6.232
  494DOPC   D2B 5194   3.139  12.134   6.082
  494DOPC   C3B 5195   3.009  12.624   6.072
  494DOPC   C4B 5196   2.939  12.884   5.752
  495DOPC   NC3 5197  25.706  18.394   7.442
  495DOPC   PO4 5198  25.389  18.724   7.452
  495DOPC   GL1 5199  25.239  18.654   7.052
  495DOPC   GL2 5200  25.259  18.294   7.102
  495DOPC   C1A 5201  25.379  18.744   6.642
  495DOPC   D2A 5202  25.519  18.844   6.312
  495DOPC   C3A 5203  25.299  19.094   6.102
  495DOPC   C4A 5204  24.929  19.364   6.082
  495DOPC   C1B 5205  25.499  18.264   6.772
  495DOPC   D2B 5206  25.609  18.324   6.272
  495DOPC   C3B 5207  25.776  18.034   6.022
  495DOPC   C4B 5208  25.706  17.624   6.092
  496DOPC   NC3 5209  11.639  25.131   8.732
  496DOPC   PO4 5210  11.959  24.961   8.372
  496DOPC   GL1 5211  12.199  24.741   7.992
  496DOPC   GL2 5212  12.029  24.891   7.702
  496DOPC   C1A 5213  12.559  24.561   7.732
  496DOPC   D2A 5214  12.789  24.241   7.472
  496DOPC   C3A 5215  12.789  24.261   7.062
  496DOPC   C4A 5216  12.719  23.951   6.742
  496DOPC   C1B 5217  12.009  24.941   7.232
  496DOPC   D2B 5218  11.949  25.101   6.852
  496DOPC   C3B 5219  12.119  25.021   6.422
  496DOPC   C4B 5220  12.139  25.241   6.052
  497DOPC   NC3 5221  11.419   3.614  10.542
  497DOPC   PO4 5222  11.779   3.864  10.762
  497DOPC   GL1 5223  11.889   3.764  11.172
  497DOPC   GL2 5224  11.599   3.874  11.382
  497DOPC   C1A 5225  11.839   3.434  11.412
  497DOPC   D2A 5226  11.839   3.004  11.612
  497DOPC   C3A 5227  11.409   2.844  11.722
  497DOPC   C4A 5228  11.009   2.674  11.692
  497DOPC   C1B 5229  11.719   3.744  11.812
  497DOPC   D2B 5230  11.439   3.734  12.152
  497DOPC   C3B 5231  11.529   3.944  12.502
  497DOPC   C4B 5232  11.639   3.814  12.932
  498DOPC   NC3 5233  18.269  15.994   7.982
  498DOPC   PO4 5234  17.889  15.704   7.792
  498DOPC   GL1 5235  17.769  15.684   7.322
  498DOPC   GL2 5236  17.619  15.984   7.372
  498DOPC   C1A 5237  17.629  15.644   6.902
  498DOPC   D2A 5238  17.459  15.514   6.472
  498DOPC   C3A 5239  17.489  15.694   6.082
  498DOPC   C4A 5240  17.439  15.734   5.592
  498DOPC   C1B 5241  17.289  16.024   7.032
  498DOPC   D2B 5242  16.909  16.144   6.762
  498DOPC   C3B 5243  16.789  16.134   6.342
  498DOPC   C4B 5244  16.499  16.024   5.962
  499DOPC   NC3 5245   1.159   4.514   7.392
  499DOPC   PO4 5246   1.459   4.704   7.172
  499DOPC   GL1 5247   1.429   4.624   6.692
  499DOPC   GL2 5248   1.469   4.914   6.462
  499DOPC   C1A 5249   1.739   4.504   6.362
  499DOPC   D2A 5250   1.749   4.424   5.902
  499DOPC   C3A 5251   2.089   4.524   5.652
  499DOPC   C4A 5252   1.989   4.794   5.412
  499DOPC   C1B 5253   1.659   5.094   6.022
  499DOPC   D2B 5254   1.649   5.234   5.582
  499DOPC   C3B 5255   1.489   5.134   5.172
  499DOPC   C4B 5256   1.199   5.124   4.712
  500DOPC   NC3 5257  14.799  19.384   8.082
  500DOPC   PO4 5258  14.409  19.434   7.892
  500DOPC   GL1 5259  14.219  19.584   7.522
  500DOPC   GL2 5260  13.879  19.544   7.362
  500DOPC   C1A 5261  14.509  19.914   7.372
  500DOPC   D2A 5262  14.909  19.984   7.362
  500DOPC   C3A 5263  15.079  20.034   7.062
  500DOPC   C4A 5264  15.209  20.414   6.842
  500DOPC   C1B 5265  13.519  19.734   7.152
  500DOPC   D2B 5266  13.169  19.864   6.892
  500DOPC   C3B 5267  13.069  20.264   6.792
  500DOPC   C4B 5268  13.379  20.564   6.762
  501DOPC   NC3 5269  14.719  13.544   9.352
  501DOPC   PO4 5270  15.089  13.274   9.342
  501DOPC   GL1 5271  14.669  13.034   9.162
  501DOPC   GL2 5272  14.509  13.074   8.822
  501DOPC   C1A 5273  14.239  12.854   9.182
  501DOPC   D2A 5274  14.099  12.604   9.442
  501DOPC   C3A 5275  13.599  12.524   9.392
  501DOPC   C4A 5276  13.319  12.234   9.432
  501DOPC   C1B 5277  14.389  12.624   8.712
  501DOPC   D2B 5278  14.259  12.244   8.562
  501DOPC   C3B 5279  14.179  11.844   8.722
  501DOPC   C4B 5280  13.739  11.744   8.822
  502DOPC   NC3 5281  12.819  24.591   4.412
  502DOPC   PO4 5282  13.229  24.441   4.392
  502DOPC   GL1 5283  13.109  24.321   4.812
  502DOPC   GL2 5284  13.459  24.441   4.842
  502DOPC   C1A 5285  13.029  24.431   5.232
  502DOPC   D2A 5286  12.739  24.641   5.492
  502DOPC   C3A 5287  12.579  24.311   5.782
  502DOPC   C4A 5288  12.249  24.001   5.952
  502DOPC   C1B 5289  13.559  24.421   5.292
  502DOPC   D2B 5290  13.719  24.541   5.582
  502DOPC   C3B 5291  13.499  24.721   5.982
  502DOPC   C4B 5292  13.099  24.661   6.132
  503DOPC   NC3 5293   1.249  20.304   3.542
  503DOPC   PO4 5294   1.489  20.684   3.662
  503DOPC   GL1 5295   1.319  20.464   4.032
  503DOPC   GL2 5296   1.439  20.754   4.222
  503DOPC   C1A 5297   1.449  20.194   4.352
  503DOPC   D2A 5298   1.239  19.944   4.582
  503DOPC   C3A 5299   1.209  19.514   4.372
  503DOPC   C4A 5300   1.549  19.234   4.482
  503DOPC   C1B 5301   1.629  20.724   4.572
  503DOPC   D2B 5302   1.669  20.714   4.952
  503DOPC   C3B 5303   2.009  20.454   5.092
  503DOPC   C4B 5304   2.229  20.464   5.592
  504DOPC   NC3 5305  18.989  11.844   7.902
  504DOPC   PO4 5306  18.699  11.654   8.072
  504DOPC   GL1 5307  18.529  11.634   7.702
  504DOPC   GL2 5308  18.259  11.514   7.792
  504DOPC   C1A 5309  18.779  11.614   7.372
  504DOPC   D2A 5310  18.849  11.434   6.952
  504DOPC   C3A 5311  18.829  11.684   6.632
  504DOPC   C4A 5312  18.549  11.814   6.312
  504DOPC   C1B 5313  17.979  11.484   7.502
  504DOPC   D2B 5314  17.879  11.424   7.112
  504DOPC   C3B 5315  17.769  11.814   6.892
  504DOPC   C4B 5316  17.479  12.004   6.592
  505DOPC   NC3 5317  22.849   6.734   7.192
  505DOPC   PO4 5318  22.959   7.034   7.302
  505DOPC   GL1 5319  23.039   7.014   6.832
  505DOPC   GL2 5320  23.339   6.784   7.032
  505DOPC   C1A 5321  22.999   7.004   6.492
  505DOPC   D2A 5322  22.849   7.074   6.082
  505DOPC   C3A 5323  22.759   7.464   5.892
  505DOPC   C4A 5324  22.869   7.554   5.532
  505DOPC   C1B 5325  23.409   6.774   6.652
  505DOPC   D2B 5326  23.409   6.764   6.102
  505DOPC   C3B 5327  23.679   6.604   5.862
  505DOPC   C4B 5328  24.069   6.764   5.642
  506DOPC   NC3 5329   1.259  10.014   6.942
  506DOPC   PO4 5330   1.549   9.744   7.102
  506DOPC   GL1 5331   1.559   9.794   6.622
  506DOPC   GL2 5332   1.539   9.534   6.402
  506DOPC   C1A 5333   1.679  10.034   6.282
  506DOPC   D2A 5334   1.579  10.414   6.032
  506DOPC   C3A 5335   1.909  10.784   5.982
  506DOPC   C4A 5336   2.029  11.104   5.752
  506DOPC   C1B 5337   1.839   9.384   6.222
  506DOPC   D2B 5338   2.079   9.434   5.852
  506DOPC   C3B 5339   2.039   9.254   5.502
  506DOPC   C4B 5340   2.049   8.864   5.362
  507DOPC   NC3 5341  10.079   1.754   4.172
  507DOPC   PO4 5342  10.549   1.664   4.042
  507DOPC   GL1 5343  10.469   1.864   4.442
  507DOPC   GL2 5344  10.759   2.054   4.432
  507DOPC   C1A 5345  10.609   1.954   4.872
  507DOPC   D2A 5346  10.369   2.244   5.112
  507DOPC   C3A 5347  10.549   2.494   5.412
  507DOPC   C4A 5348  10.839   2.504   5.622
  507DOPC   C1B 5349  10.449   2.334   4.582
  507DOPC   D2B 5350  10.269   2.684   4.672
  507DOPC   C3B 5351  10.069   2.684   5.122
  507DOPC   C4B 5352  10.119   2.464   5.572
  508DOPC   NC3 5353  19.279   4.244   4.332
  508DOPC   PO4 5354  19.549   4.114   3.932
  508DOPC   GL1 5355  19.519   3.744   4.142
  508DOPC   GL2 5356  19.189   3.774   4.232
  508DOPC   C1A 5357  19.799   3.584   4.422
  508DOPC   D2A 5358  19.999   3.294   4.702
  508DOPC   C3A 5359  20.239   3.004   4.772
  508DOPC   C4A 5360  20.379   2.934   5.112
  508DOPC   C1B 5361  19.319   3.584   4.582
  508DOPC   D2B 5362  19.559   3.534   4.892
  508DOPC   C3B 5363  19.709   3.314   5.222
  508DOPC   C4B 5364  19.709   3.154   5.602
  509DOPC   NC3 5365   7.109  17.324   7.872
  509DOPC   PO4 5366   7.249  17.784   7.802
  509DOPC   GL1 5367   7.169  18.084   7.532
  509DOPC   GL2 5368   6.879  18.084   7.352
  509DOPC   C1A 5369   7.329  18.174   7.062
  509DOPC   D2A 5370   7.199  18.434   6.622
  509DOPC   C3A 5371   7.199  18.344   6.232
  509DOPC   C4A 5372   7.479  18.144   6.002
  509DOPC   C1B 5373   6.899  17.924   6.892
  509DOPC   D2B 5374   7.299  17.924   6.592
  509DOPC   C3B 5375   7.649  18.234   6.592
  509DOPC   C4B 5376   7.879  18.414   6.222
  510DOPC   NC3 5377  21.919  22.731   7.662
  510DOPC   PO4 5378  22.199  22.411   7.462
  510DOPC   GL1 5379  22.079  22.581   7.052
  510DOPC   GL2 5380  22.069  22.921   7.182
  510DOPC   C1A 5381  21.949  22.781   6.662
  510DOPC   D2A 5382  22.139  23.111   6.392
  510DOPC   C3A 5383  22.519  22.991   6.232
  510DOPC   C4A 5384  22.629  22.641   6.012
  510DOPC   C1B 5385  22.089  23.311   7.072
  510DOPC   D2B 5386  21.999  23.461   6.682
  510DOPC   C3B 5387  21.759  23.461   6.422
  510DOPC   C4B 5388  21.579  23.901   6.222
  511DOPC   NC3 5389  16.489  24.761   3.392
  511DOPC   PO4 5390  16.779  25.081   3.582
  511DOPC   GL1 5391  16.859  25.321   3.942
  511DOPC   GL2 5392  16.669  25.081   4.232
  511DOPC   C1A 5393  16.809  25.471   4.452
  511DOPC   D2A 5394  16.969  25.451   4.892
  511DOPC   C3A 5395  16.999  25.891   4.932
  511DOPC   C4A 5396  16.949  26.261   5.262
  511DOPC   C1B 5397  16.439  24.921   4.582
  511DOPC   D2B 5398  16.269  24.911   4.962
  511DOPC   C3B 5399  16.419  24.731   5.242
  511DOPC   C4B 5400  16.469  24.881   5.652
  512DOPC   NC3 5401  11.139  15.434   4.462
  512DOPC   PO4 5402  11.079  15.834   4.712
  512DOPC   GL1 5403  11.009  16.084   5.142
  512DOPC   GL2 5404  11.019  15.864   5.412
  512DOPC   C1A 5405  10.579  16.134   5.322
  512DOPC   D2A 5406  10.129  16.124   5.402
  512DOPC   C3A 5407   9.979  16.204   5.802
  512DOPC   C4A 5408   9.839  16.564   6.032
  512DOPC   C1B 5409  10.989  15.764   5.892
  512DOPC   D2B 5410  11.119  15.804   6.282
  512DOPC   C3B 5411  11.159  16.224   6.542
  512DOPC   C4B 5412  11.139  16.504   6.872
  513DOPC   NC3 5413  19.899  11.194   3.522
  513DOPC   PO4 5414  20.159  10.874   3.532
  513DOPC   GL1 5415  20.259  10.894   3.942
  513DOPC   GL2 5416  20.029  11.144   4.062
  513DOPC   C1A 5417  20.519  11.204   4.232
  513DOPC   D2A 5418  20.539  11.184   4.742
  513DOPC   C3A 5419  20.829  11.304   4.982
  513DOPC   C4A 5420  21.229  11.184   5.252
  513DOPC   C1B 5421  19.789  11.414   4.392
  513DOPC   D2B 5422  19.549  11.674   4.642
  513DOPC   C3B 5423  19.529  11.474   5.132
  513DOPC   C4B 5424  19.539  11.404   5.562
  514DOPC   NC3 5425  16.269  10.904   7.882
  514DOPC   PO4 5426  16.559  11.184   8.032
  514DOPC   GL1 5427  16.469  11.334   7.682
  514DOPC   GL2 5428  16.139  11.364   7.612
  514DOPC   C1A 5429  16.469  11.204   7.282
  514DOPC   D2A 5430  16.759  11.394   7.122
  514DOPC   C3A 5431  16.999  11.324   6.662
  514DOPC   C4A 5432  16.979  11.464   6.212
  514DOPC   C1B 5433  15.969  11.234   7.292
  514DOPC   D2B 5434  16.149  11.394   6.902
  514DOPC   C3B 5435  15.909  11.704   6.742
  514DOPC   C4B 5436  15.649  11.654   6.452
  515DOPC   NC3 5437  25.139   3.044   7.132
  515DOPC   PO4 5438  25.449   3.424   7.022
  515DOPC   GL1 5439  25.119   3.504   6.622
  515DOPC   GL2 5440  24.909   3.734   6.512
  515DOPC   C1A 5441  24.909   3.174   6.432
  515DOPC   D2A 5442  25.179   2.834   6.142
  515DOPC   C3A 5443  25.409   2.844   5.772
  515DOPC   C4A 5444  25.249   3.094   5.502
  515DOPC   C1B 5445  25.189   3.774   6.112
  515DOPC   D2B 5446  25.289   3.674   5.652
  515DOPC   C3B 5447  25.469   3.904   5.282
  515DOPC   C4B 5448  25.856   3.994   5.092
  516DOPC   NC3 5449   6.479  13.754   7.762
  516DOPC   PO4 5450   6.619  13.284   7.802
  516DOPC   GL1 5451   6.879  13.194   7.422
  516DOPC   GL2 5452   7.219  13.164   7.412
  516DOPC   C1A 5453   6.889  13.234   7.052
  516DOPC   D2A 5454   6.759  13.464   6.712
  516DOPC   C3A 5455   6.789  13.794   6.492
  516DOPC   C4A 5456   6.679  14.074   6.192
  516DOPC   C1B 5457   7.529  13.274   7.052
  516DOPC   D2B 5458   7.859  13.294   6.672
  516DOPC   C3B 5459   7.739  13.364   6.252
  516DOPC   C4B 5460   7.749  13.284   5.862
  517DOPC   NC3 5461   8.279  24.881   7.672
  517DOPC   PO4 5462   8.109  25.311   7.822
  517DOPC   GL1 5463   8.129  25.411   7.342
  517DOPC   GL2 5464   7.959  25.451   7.222
  517DOPC   C1A 5465   8.509  25.371   7.092
  517DOPC   D2A 5466   8.769  25.091   6.862
  517DOPC   C3A 5467   8.759  24.901   6.412
  517DOPC   C4A 5468   8.409  24.741   6.192
  517DOPC   C1B 5469   8.099  25.441   6.762
  517DOPC   D2B 5470   8.069  25.471   6.312
  517DOPC   C3B 5471   8.119  25.261   5.972
  517DOPC   C4B 5472   8.559  25.081   5.802
  518DOPC   NC3 5473  24.099  11.624   3.562
  518DOPC   PO4 5474  23.989  11.704   3.872
  518DOPC   GL1 5475  24.089  11.524   4.212
  518DOPC   GL2 5476  23.899  11.344   4.392
  518DOPC   C1A 5477  24.509  11.414   4.212
  518DOPC   D2A 5478  24.639  11.224   4.612
  518DOPC   C3A 5479  25.009  11.124   4.592
  518DOPC   C4A 5480  25.409  11.104   4.762
  518DOPC   C1B 5481  23.899  11.124   4.812
  518DOPC   D2B 5482  23.569  11.234   5.102
  518DOPC   C3B 5483  23.399  11.574   5.172
  518DOPC   C4B 5484  23.549  11.944   5.442
  519DOPC   NC3 5485   6.039  19.874   3.872
  519DOPC   PO4 5486   6.279  20.144   3.992
  519DOPC   GL1 5487   6.119  20.024   4.472
  519DOPC   GL2 5488   6.439  19.894   4.762
  519DOPC   C1A 5489   5.899  19.994   4.782
  519DOPC   D2A 5490   5.589  20.074   5.182
  519DOPC   C3A 5491   5.689  20.094   5.642
  519DOPC   C4A 5492   5.529  20.024   6.062
  519DOPC   C1B 5493   6.249  19.854   5.172
  519DOPC   D2B 5494   6.009  19.714   5.482
  519DOPC   C3B 5495   6.079  19.944   5.892
  519DOPC   C4B 5496   6.149  20.304   6.112
  520DOPC   NC3 5497  25.559  21.114   7.632
  520DOPC   PO4 5498  25.159  21.164   7.492
  520DOPC   GL1 5499  25.229  21.371   7.122
  520DOPC   GL2 5500  24.889  21.324   6.922
  520DOPC   C1A 5501  25.349  21.661   6.802
  520DOPC   D2A 5502  25.559  22.071   6.692
  520DOPC   C3A 5503  25.639  22.061   6.262
  520DOPC   C4A 5504  25.746  22.161   5.852
  520DOPC   C1B 5505  24.469  21.324   6.672
  520DOPC   D2B 5506  24.489  21.274   6.292
  520DOPC   C3B 5507  24.909  21.154   6.212
  520DOPC   C4B 5508  25.249  20.884   6.202
  521DOPC   NC3 5509  18.329  24.631   8.162
  521DOPC   PO4 5510  17.959  24.511   7.942
  521DOPC   GL1 5511  18.119  24.781   7.592
  521DOPC   GL2 5512  17.939  24.941   7.422
  521DOPC   C1A 5513  18.079  24.581   7.042
  521DOPC   D2A 5514  17.959  24.731   6.582
  521DOPC   C3A 5515  17.519  24.631   6.532
  521DOPC   C4A 5516  17.249  24.851   6.312
  521DOPC   C1B 5517  17.879  25.071   7.052
  521DOPC   D2B 5518  17.919  25.261   6.562
  521DOPC   C3B 5519  17.629  25.181   6.132
  521DOPC   C4B 5520  17.239  25.311   6.032
  522DOPC   NC3 5521  24.499   7.654   7.102
  522DOPC   PO4 5522  24.349   7.144   7.052
  522DOPC   GL1 5523  24.379   7.074   6.612
  522DOPC   GL2 5524  24.459   6.854   6.492
  522DOPC   C1A 5525  24.299   7.204   6.112
  522DOPC   D2A 5526  24.419   7.254   5.702
  522DOPC   C3A 5527  24.639   7.554   5.462
  522DOPC   C4A 5528  24.549   7.814   5.182
  522DOPC   C1B 5529  24.259   6.584   6.112
  522DOPC   D2B 5530  24.479   6.234   5.762
  522DOPC   C3B 5531  24.379   5.824   5.812
  522DOPC   C4B 5532  24.259   5.414   5.872
  523DOPC   NC3 5533   9.839  24.731   8.212
  523DOPC   PO4 5534   9.699  24.381   7.922
  523DOPC   GL1 5535   9.669  24.461   7.502
  523DOPC   GL2 5536   9.649  24.771   7.282
  523DOPC   C1A 5537   9.819  24.391   7.042
  523DOPC   D2A 5538   9.649  24.471   6.602
  523DOPC   C3A 5539   9.699  24.791   6.392
  523DOPC   C4A 5540   9.559  25.161   6.082
  523DOPC   C1B 5541   9.659  25.101   6.982
  523DOPC   D2B 5542   9.659  25.241   6.652
  523DOPC   C3B 5543   9.219  25.311   6.492
  523DOPC   C4B 5544   8.959  25.381   6.022
  524DOPC   NC3 5545   6.509   0.774   7.542
  524DOPC   PO4 5546   6.429   1.204   7.722
  524DOPC   GL1 5547   6.459   1.264   7.322
  524DOPC   GL2 5548   6.179   0.994   7.262
  524DOPC   C1A 5549   6.119   1.454   6.982
  524DOPC   D2A 5550   6.039   1.774   6.702
  524DOPC   C3A 5551   6.319   1.834   6.322
  524DOPC   C4A 5552   6.679   1.884   6.102
  524DOPC   C1B 5553   6.289   0.994   6.902
  524DOPC   D2B 5554   6.589   0.684   7.032
  524DOPC   C3B 5555   6.949   0.544   6.842
  524DOPC   C4B 5556   7.359   0.494   6.792
  525DOPC   NC3 5557   2.089   5.794   7.112
  525DOPC   PO4 5558   2.349   5.884   6.822
  525DOPC   GL1 5559   2.299   5.774   6.452
  525DOPC   GL2 5560   2.029   5.954   6.402
  525DOPC   C1A 5561   2.309   5.584   5.982
  525DOPC   D2A 5562   2.469   5.594   5.522
  525DOPC   C3A 5563   2.789   5.854   5.282
  525DOPC   C4A 5564   2.859   5.864   4.782
  525DOPC   C1B 5565   1.809   5.634   6.082
  525DOPC   D2B 5566   1.469   5.674   5.842
  525DOPC   C3B 5567   1.459   5.644   5.252
  525DOPC   C4B 5568   1.749   5.504   5.002
  526DOPC   NC3 5569  11.249   5.454   4.352
  526DOPC   PO4 5570  11.619   5.154   4.442
  526DOPC   GL1 5571  11.559   4.874   4.752
  526DOPC   GL2 5572  11.749   5.124   4.972
  526DOPC   C1A 5573  11.359   4.844   5.182
  526DOPC   D2A 5574  11.209   4.774   5.552
  526DOPC   C3A 5575  11.159   4.474   5.942
  526DOPC   C4A 5576  11.429   4.294   6.272
  526DOPC   C1B 5577  11.689   5.144   5.402
  526DOPC   D2B 5578  11.329   5.204   5.722
  526DOPC   C3B 5579  11.299   5.304   6.122
  526DOPC   C4B 5580  11.579   5.304   6.432
  527DOPC   NC3 5581  17.859  20.164   7.432
  527DOPC   PO4 5582  17.399  20.264   7.412
  527DOPC   GL1 5583  17.139  20.104   7.092
  527DOPC   GL2 5584  17.279  19.934   6.832
  527DOPC   C1A 5585  16.999  20.364   6.742
  527DOPC   D2A 5586  16.559  20.384   6.482
  527DOPC   C3A 5587  16.439  20.174   6.132
  527DOPC   C4A 5588  16.509  20.264   5.672
  527DOPC   C1B 5589  17.219  20.114   6.412
  527DOPC   D2B 5590  17.269  20.294   6.092
  527DOPC   C3B 5591  17.499  20.244   5.712
  527DOPC   C4B 5592  17.939  20.304   5.482
  528DOPC   NC3 5593  15.579  10.814   8.482
  528DOPC   PO4 5594  15.649  10.574   8.172
  528DOPC   GL1 5595  15.749  10.974   7.972
  528DOPC   GL2 5596  15.859  10.904   7.642
  528DOPC   C1A 5597  15.599  11.344   7.662
  528DOPC   D2A 5598  15.319  11.374   7.262
  528DOPC   C3A 5599  15.369  11.744   6.962
  528DOPC   C4A 5600  15.489  12.084   6.672
  528DOPC   C1B 5601  15.639  10.874   7.302
  528DOPC   D2B 5602  15.319  10.594   6.962
  528DOPC   C3B 5603  14.949  10.554   6.712
  528DOPC   C4B 5604  14.669  10.474   6.822
  529DOPC   NC3 5605  10.779  19.664   9.052
  529DOPC   PO4 5606  11.119  19.784   8.712
  529DOPC   GL1 5607  11.089  19.634   8.282
  529DOPC   GL2 5608  10.829  19.364   8.102
  529DOPC   C1A 5609  11.389  19.704   7.892
  529DOPC   D2A 5610  11.379  19.854   7.472
  529DOPC   C3A 5611  11.619  19.704   7.112
  529DOPC   C4A 5612  11.979  19.694   7.252
  529DOPC   C1B 5613  11.029  19.444   7.602
  529DOPC   D2B 5614  11.209  19.454   7.182
  529DOPC   C3B 5615  11.059  19.544   6.752
  529DOPC   C4B 5616  11.409  19.354   6.502
  530DOPC   NC3 5617   5.989   0.944   7.732
  530DOPC   PO4 5618   5.559   1.074   7.622
  530DOPC   GL1 5619   5.679   1.074   7.242
  530DOPC   GL2 5620   5.779   0.704   7.062
  530DOPC   C1A 5621   5.729   1.174   6.792
  530DOPC   D2A 5622   5.629   1.454   6.502
  530DOPC   C3A 5623   5.859   1.664   6.192
  530DOPC   C4A 5624   5.809   2.164   6.082
  530DOPC   C1B 5625   5.899   0.664   6.722
  530DOPC   D2B 5626   6.189   0.704   6.412
  530DOPC   C3B 5627   5.839   0.744   5.972
  530DOPC   C4B 5628   5.699   0.744   5.592
  531DOPC   NC3 5629  17.519   4.194   4.212
  531DOPC   PO4 5630  17.209   4.604   4.262
  531DOPC   GL1 5631  17.489   4.654   4.522
  531DOPC   GL2 5632  17.669   4.974   4.392
  531DOPC   C1A 5633  17.409   4.734   5.022
  531DOPC   D2A 5634  17.229   4.684   5.422
  531DOPC   C3A 5635  17.239   4.544   5.822
  531DOPC   C4A 5636  17.529   4.314   6.072
  531DOPC   C1B 5637  17.809   5.004   4.752
  531DOPC   D2B 5638  17.999   4.744   5.122
  531DOPC   C3B 5639  18.249   4.884   5.532
  531DOPC   C4B 5640  18.249   5.074   5.862
  532DOPC   NC3 5641   8.029  24.791   4.372
  532DOPC   PO4 5642   8.329  24.481   4.352
  532DOPC   GL1 5643   8.529  24.511   4.672
  532DOPC   GL2 5644   8.879  24.381   4.712
  532DOPC   C1A 5645   8.349  24.441   5.012
  532DOPC   D2A 5646   8.279  24.301   5.482
  532DOPC   C3A 5647   8.579  24.471   5.812
  532DOPC   C4A 5648   8.779  24.381   6.262
  532DOPC   C1B 5649   8.899  24.591   5.152
  532DOPC   D2B 5650   8.639  24.761   5.412
  532DOPC   C3B 5651   8.669  25.231   5.302
  532DOPC   C4B 5652   8.939  25.561   5.342
  533DOPC   NC3 5653  20.499   2.184   3.552
  533DOPC   PO4 5654  20.799   1.924   3.862
  533DOPC   GL1 5655  20.909   2.084   4.272
  533DOPC   GL2 5656  21.169   1.834   4.262
  533DOPC   C1A 5657  21.109   2.374   4.542
  533DOPC   D2A 5658  21.189   2.764   4.852
  533DOPC   C3A 5659  21.679   2.844   5.102
  533DOPC   C4A 5660  21.729   2.764   5.442
  533DOPC   C1B 5661  21.189   1.934   4.632
  533DOPC   D2B 5662  21.119   2.034   5.032
  533DOPC   C3B 5663  20.859   2.104   5.342
  533DOPC   C4B 5664  20.679   1.924   5.602
  534DOPC   NC3 5665  11.979   0.754   3.682
  534DOPC   PO4 5666  11.899   0.574   4.032
  534DOPC   GL1 5667  11.829   0.424   4.462
  534DOPC   GL2 5668  12.059   0.654   4.632
  534DOPC   C1A 5669  11.549   0.584   4.812
  534DOPC   D2A 5670  11.209   0.654   5.162
  534DOPC   C3A 5671  11.199   0.314   5.492
  534DOPC   C4A 5672  11.199   0.064   5.862
  534DOPC   C1B 5673  11.959   0.504   5.102
  534DOPC   D2B 5674  12.119   0.144   5.332
  534DOPC   C3B 5675  12.159   0.204   5.782
  534DOPC   C4B 5676  12.149   0.624   6.052
  535DOPC   NC3 5677  24.729  14.424   7.732
  535DOPC   PO4 5678  24.619  14.084   7.832
  535DOPC   GL1 5679  24.599  14.084   7.322
  535DOPC   GL2 5680  24.689  14.324   7.222
  535DOPC   C1A 5681  24.729  13.834   6.882
  535DOPC   D2A 5682  24.659  13.604   6.472
  535DOPC   C3A 5683  24.929  13.204   6.352
  535DOPC   C4A 5684  25.249  12.964   6.212
  535DOPC   C1B 5685  24.799  14.414   6.812
  535DOPC   D2B 5686  24.999  14.594   6.432
  535DOPC   C3B 5687  24.859  14.424   6.122
  535DOPC   C4B 5688  24.779  14.174   5.692
  536DOPC   NC3 5689  16.739  21.401   7.552
  536DOPC   PO4 5690  16.709  21.881   7.482
  536DOPC   GL1 5691  16.559  22.041   7.072
  536DOPC   GL2 5692  16.699  22.331   7.042
  536DOPC   C1A 5693  16.279  22.111   6.822
  536DOPC   D2A 5694  16.269  22.271   6.402
  536DOPC   C3A 5695  15.999  22.301   6.102
  536DOPC   C4A 5696  15.749  22.521   5.832
  536DOPC   C1B 5697  16.769  22.181   6.652
  536DOPC   D2B 5698  16.749  22.271   6.202
  536DOPC   C3B 5699  17.009  22.101   5.892
  536DOPC   C4B 5700  16.949  22.011   5.522
  537DOPC   NC3 5701   9.779  10.684   9.192
  537DOPC   PO4 5702   9.919  10.814   8.702
  537DOPC   GL1 5703   9.929  10.924   8.292
  537DOPC   GL2 5704   9.709  10.744   8.122
  537DOPC   C1A 5705   9.989  11.014   7.812
  537DOPC   D2A 5706   9.779  11.194   7.472
  537DOPC   C3A 5707   9.779  10.874   7.122
  537DOPC   C4A 5708   9.909  10.514   6.822
  537DOPC   C1B 5709  10.089  10.444   7.852
  537DOPC   D2B 5710  10.239  10.424   7.332
  537DOPC   C3B 5711  10.189  10.014   7.082
  537DOPC   C4B 5712  10.089  10.014   6.732
  538DOPC   NC3 5713  23.939   2.154   7.302
  538DOPC   PO4 5714  23.839   2.584   7.442
  538DOPC   GL1 5715  23.799   2.544   6.972
  538DOPC   GL2 5716  24.029   2.784   6.812
  538DOPC   C1A 5717  23.629   2.684   6.552
  538DOPC   D2A 5718  23.549   2.484   6.202
  538DOPC   C3A 5719  23.179   2.654   5.972
  538DOPC   C4A 5720  22.739   2.544   5.802
  538DOPC   C1B 5721  24.149   2.794   6.392
  538DOPC   D2B 5722  23.939   2.934   6.102
  538DOPC   C3B 5723  23.549   2.994   6.042
  538DOPC   C4B 5724  23.309   3.084   6.412
  539DOPC   NC3 5725  11.329  11.814   5.532
  539DOPC   PO4 5726  11.229  12.054   5.142
  539DOPC   GL1 5727  10.859  11.814   5.452
  539DOPC   GL2 5728  10.829  11.544   5.432
  539DOPC   C1A 5729  10.699  11.954   5.892
  539DOPC   D2A 5730  10.419  11.974   6.302
  539DOPC   C3A 5731  10.649  11.994   6.662
  539DOPC   C4A 5732  10.999  11.904   6.922
  539DOPC   C1B 5733  10.769  11.474   5.972
  539DOPC   D2B 5734  10.769  11.614   6.332
  539DOPC   C3B 5735  10.639  11.224   6.542
  539DOPC   C4B 5736  10.359  11.234   6.932
  540DOPC   NC3 5737   6.879  16.874   8.042
  540DOPC   PO4 5738   7.309  16.834   7.782
  540DOPC   GL1 5739   7.489  16.624   7.372
  540DOPC   GL2 5740   7.789  16.624   7.522
  540DOPC   C1A 5741   7.399  16.604   6.872
  540DOPC   D2A 5742   7.419  16.794   6.432
  540DOPC   C3A 5743   7.899  16.914   6.372
  540DOPC   C4A 5744   8.349  16.704   6.302
  540DOPC   C1B 5745   7.989  16.704   7.162
  540DOPC   D2B 5746   7.949  17.034   6.852
  540DOPC   C3B 5747   8.379  17.174   6.562
  540DOPC   C4B 5748   8.829  17.284   6.322
  541DOPC   NC3 5749   9.169   3.634  10.702
  541DOPC   PO4 5750   9.079   4.044  10.702
  541DOPC   GL1 5751   9.019   3.924  11.092
  541DOPC   GL2 5752   8.639   4.044  11.262
  541DOPC   C1A 5753   9.249   3.954  11.552
  541DOPC   D2A 5754   9.239   4.094  11.942
  541DOPC   C3A 5755   9.609   4.154  12.252
  541DOPC   C4A 5756   9.809   4.504  12.522
  541DOPC   C1B 5757   8.609   4.004  11.742
  541DOPC   D2B 5758   8.759   3.774  12.222
  541DOPC   C3B 5759   9.139   3.754  12.422
  541DOPC   C4B 5760   9.289   3.454  12.662
  542DOPC   NC3 5761  12.319   9.854   4.992
  542DOPC   PO4 5762  12.679  10.174   4.862
  542DOPC   GL1 5763  12.689  10.214   5.292
  542DOPC   GL2 5764  12.629  10.024   5.542
  542DOPC   C1A 5765  12.949  10.444   5.602
  542DOPC   D2A 5766  12.919  10.374   5.972
  542DOPC   C3A 5767  12.429  10.314   5.872
  542DOPC   C4A 5768  12.119  10.604   5.952
  542DOPC   C1B 5769  12.329   9.774   5.852
  542DOPC   D2B 5770  12.139   9.314   5.852
  542DOPC   C3B 5771  12.189   9.014   6.052
  542DOPC   C4B 5772  12.469   8.574   6.052
  543DOPC   NC3 5773  12.709  23.891   3.752
  543DOPC   PO4 5774  12.499  23.971   4.062
  543DOPC   GL1 5775  12.589  23.971   4.442
  543DOPC   GL2 5776  12.449  24.281   4.552
  543DOPC   C1A 5777  12.729  24.011   4.832
  543DOPC   D2A 5778  12.689  24.031   5.212
  543DOPC   C3A 5779  13.009  24.031   5.532
  543DOPC   C4A 5780  13.329  24.311   5.702
  543DOPC   C1B 5781  12.289  24.301   4.922
  543DOPC   D2B 5782  12.309  24.331   5.382
  543DOPC   C3B 5783  11.929  24.241   5.632
  543DOPC   C4B 5784  11.609  24.011   5.772
  544DOPC   NC3 5785  22.039   4.794   7.172
  544DOPC   PO4 5786  21.659   5.044   7.282
  544DOPC   GL1 5787  21.589   4.834   6.932
  544DOPC   GL2 5788  21.599   5.154   6.762
  544DOPC   C1A 5789  21.529   4.614   6.542
  544DOPC   D2A 5790  21.179   4.374   6.322
  544DOPC   C3A 5791  21.279   3.994   5.972
  544DOPC   C4A 5792  21.609   3.914   5.582
  544DOPC   C1B 5793  21.819   5.074   6.432
  544DOPC   D2B 5794  21.759   4.844   6.032
  544DOPC   C3B 5795  21.929   4.854   5.572
  544DOPC   C4B 5796  21.909   5.104   5.222
  545DOPC   NC3 5797  11.209  10.434   4.692
  545DOPC   PO4 5798  10.799  10.424   4.762
  545DOPC   GL1 5799  10.579  10.434   5.162
  545DOPC   GL2 5800  10.399  10.684   5.172
  545DOPC   C1A 5801  10.639  10.594   5.552
  545DOPC   D2A 5802  10.669  10.554   5.902
  545DOPC   C3A 5803  10.299  10.434   5.942
  545DOPC   C4A 5804  10.079  10.524   6.262
  545DOPC   C1B 5805  10.139  10.644   5.502
  545DOPC   D2B 5806   9.739  10.384   5.662
  545DOPC   C3B 5807   9.589  10.504   6.122
  545DOPC   C4B 5808   9.329  10.884   6.202
  546DOPC   NC3 5809   2.009   2.974   3.622
  546DOPC   PO4 5810   1.649   2.764   3.622
  546DOPC   GL1 5811   1.389   2.674   3.852
  546DOPC   GL2 5812   1.079   2.854   3.902
  546DOPC   C1A 5813   1.449   2.604   4.212
  546DOPC   D2A 5814   1.539   2.354   4.492
  546DOPC   C3A 5815   1.879   2.424   4.692
  546DOPC   C4A 5816   1.829   2.384   5.062
  546DOPC   C1B 5817   1.099   3.194   4.152
  546DOPC   D2B 5818   1.299   3.454   4.462
  546DOPC   C3B 5819   1.039   3.764   4.522
  546DOPC   C4B 5820   0.689   4.074   4.762
  547DOPC   NC3 5821  10.799   6.264   4.152
  547DOPC   PO4 5822  10.929   5.784   4.152
  547DOPC   GL1 5823  11.019   5.964   4.502
  547DOPC   GL2 5824  11.179   6.274   4.602
  547DOPC   C1A 5825  10.759   6.004   4.912
  547DOPC   D2A 5826  10.479   6.014   5.182
  547DOPC   C3A 5827  10.379   6.294   5.502
  547DOPC   C4A 5828  10.189   6.514   5.812
  547DOPC   C1B 5829  10.989   6.444   4.962
  547DOPC   D2B 5830  10.829   6.454   5.312
  547DOPC   C3B 5831  10.909   6.164   5.542
  547DOPC   C4B 5832  10.879   6.014   5.942
  548DOPC   NC3 5833   9.019  21.254   4.432
  548DOPC   PO4 5834   9.309  21.354   4.702
  548DOPC   GL1 5835   9.319  21.204   5.152
  548DOPC   GL2 5836   9.549  21.264   5.282
  548DOPC   C1A 5837   9.119  21.391   5.462
  548DOPC   D2A 5838   9.049  21.721   5.742
  548DOPC   C3A 5839   9.429  22.081   5.822
  548DOPC   C4A 5840   9.609  22.431   6.032
  548DOPC   C1B 5841   9.449  20.964   5.532
  548DOPC   D2B 5842   9.629  20.714   5.872
  548DOPC   C3B 5843   9.509  20.854   6.342
  548DOPC   C4B 5844   9.679  21.144   6.802
  549DOPC   NC3 5845  18.799   4.104   7.642
  549DOPC   PO4 5846  18.509   4.504   7.622
  549DOPC   GL1 5847  18.429   4.304   7.272
  549DOPC   GL2 5848  18.609   4.074   7.192
  549DOPC   C1A 5849  18.299   4.224   6.792
  549DOPC   D2A 5850  18.369   4.454   6.372
  549DOPC   C3A 5851  18.099   4.824   6.352
  549DOPC   C4A 5852  17.889   5.284   6.252
  549DOPC   C1B 5853  18.839   3.944   6.822
  549DOPC   D2B 5854  19.009   3.954   6.322
  549DOPC   C3B 5855  19.259   4.194   6.112
  549DOPC   C4B 5856  19.139   4.604   5.962
  550DOPC   NC3 5857  25.139  14.574   8.022
  550DOPC   PO4 5858  25.389  14.924   7.852
  550DOPC   GL1 5859  25.349  14.774   7.442
  550DOPC   GL2 5860  25.079  14.644   7.312
  550DOPC   C1A 5861  25.599  14.704   7.072
  550DOPC   D2A 5862  25.419  14.734   6.632
  550DOPC   C3A 5863  25.229  15.064   6.482
  550DOPC   C4A 5864  25.069  15.264   6.072
  550DOPC   C1B 5865  24.979  14.824   6.962
  550DOPC   D2B 5866  24.779  14.974   6.682
  550DOPC   C3B 5867  24.749  14.964   6.242
  550DOPC   C4B 5868  24.849  14.814   5.782
  551DOPC   NC3 5869  23.129  11.824   7.612
  551DOPC   PO4 5870  22.959  11.514   7.332
  551DOPC   GL1 5871  22.949  11.474   6.982
  551DOPC   GL2 5872  23.279  11.484   6.912
  551DOPC   C1A 5873  22.569  11.554   6.642
  551DOPC   D2A 5874  22.269  11.814   6.452
  551DOPC   C3A 5875  22.249  12.104   6.222
  551DOPC   C4A 5876  22.409  12.454   5.882
  551DOPC   C1B 5877  23.019  11.694   6.542
  551DOPC   D2B 5878  23.289  11.744   6.252
  551DOPC   C3B 5879  23.289  11.944   5.882
  551DOPC   C4B 5880  23.159  12.254   5.612
  552DOPC   NC3 5881  17.549   2.564   3.972
  552DOPC   PO4 5882  17.529   2.994   4.112
  552DOPC   GL1 5883  17.749   3.094   4.422
  552DOPC   GL2 5884  18.009   3.014   4.322
  552DOPC   C1A 5885  17.699   2.874   4.852
  552DOPC   D2A 5886  17.479   3.024   5.212
  552DOPC   C3A 5887  17.419   3.334   5.552
  552DOPC   C4A 5888  17.529   3.214   5.982
  552DOPC   C1B 5889  18.169   2.954   4.692
  552DOPC   D2B 5890  18.469   2.734   4.862
  552DOPC   C3B 5891  18.409   2.574   5.222
  552DOPC   C4B 5892  18.279   2.694   5.652
  553DOPC   NC3 5893   9.149  17.194   8.152
  553DOPC   PO4 5894   9.599  17.324   8.362
  553DOPC   GL1 5895   9.889  17.304   8.102
  553DOPC   GL2 5896  10.069  17.174   8.032
  553DOPC   C1A 5897   9.859  17.474   7.702
  553DOPC   D2A 5898  10.109  17.524   7.252
  553DOPC   C3A 5899  10.049  17.454   6.842
  553DOPC   C4A 5900  10.179  17.174   6.622
  553DOPC   C1B 5901  10.279  17.194   7.642
  553DOPC   D2B 5902  10.399  17.034   7.282
  553DOPC   C3B 5903  10.069  16.884   7.122
  553DOPC   C4B 5904   9.849  16.534   6.932
  554DOPC   NC3 5905  13.739  -0.296   4.372
  554DOPC   PO4 5906  13.649   0.194   4.412
  554DOPC   GL1 5907  13.499   0.284   4.862
  554DOPC   GL2 5908  13.359   0.564   4.802
  554DOPC   C1A 5909  13.619   0.574   5.182
  554DOPC   D2A 5910  13.619   0.934   5.362
  554DOPC   C3A 5911  14.069   1.204   5.492
  554DOPC   C4A 5912  14.399   1.554   5.602
  554DOPC   C1B 5913  13.589   0.954   4.832
  554DOPC   D2B 5914  14.039   1.124   4.982
  554DOPC   C3B 5915  14.119   1.594   5.122
  554DOPC   C4B 5916  14.289   2.024   5.152
  555DOPC   NC3 5917   2.619   0.244   7.532
  555DOPC   PO4 5918   2.599   0.564   7.412
  555DOPC   GL1 5919   2.569   0.574   6.902
  555DOPC   GL2 5920   2.839   0.804   6.772
  555DOPC   C1A 5921   2.339   0.634   6.392
  555DOPC   D2A 5922   2.499   0.694   6.002
  555DOPC   C3A 5923   2.189   0.704   5.732
  555DOPC   C4A 5924   2.079   0.484   5.312
  555DOPC   C1B 5925   2.929   0.704   6.382
  555DOPC   D2B 5926   3.139   0.574   6.062
  555DOPC   C3B 5927   2.999   0.384   5.742
  555DOPC   C4B 5928   3.169  -0.006   5.492
  556DOPC   NC3 5929  23.239  16.814   7.862
  556DOPC   PO4 5930  23.599  16.664   7.792
  556DOPC   GL1 5931  23.629  16.794   7.362
  556DOPC   GL2 5932  23.859  16.814   7.262
  556DOPC   C1A 5933  23.629  16.494   6.922
  556DOPC   D2A 5934  23.409  16.254   6.592
  556DOPC   C3A 5935  22.989  16.354   6.602
  556DOPC   C4A 5936  22.649  16.164   6.622
  556DOPC   C1B 5937  24.149  16.364   7.002
  556DOPC   D2B 5938  24.339  16.234   6.682
  556DOPC   C3B 5939  24.209  16.134   6.262
  556DOPC   C4B 5940  24.269  16.314   5.722
  557DOPC   NC3 5941   9.949  22.991   8.022
  557DOPC   PO4 5942   9.989  23.381   8.172
  557DOPC   GL1 5943  10.089  23.461   7.762
  557DOPC   GL2 5944  10.069  23.171   7.562
  557DOPC   C1A 5945  10.149  23.711   7.482
  557DOPC   D2A 5946  10.209  23.871   7.012
  557DOPC   C3A 5947  10.669  24.091   6.902
  557DOPC   C4A 5948  10.969  24.351   6.782
  557DOPC   C1B 5949   9.809  23.181   7.262
  557DOPC   D2B 5950   9.389  23.291   7.202
  557DOPC   C3B 5951   9.269  23.551   6.872
  557DOPC   C4B 5952   9.589  23.641   6.492
  558DOPC   NC3 5953  11.509   6.664   4.372
  558DOPC   PO4 5954  11.719   6.984   4.272
  558DOPC   GL1 5955  11.739   6.984   4.742
  558DOPC   GL2 5956  11.579   6.694   4.882
  558DOPC   C1A 5957  11.569   7.094   5.102
  558DOPC   D2A 5958  11.309   7.334   5.442
  558DOPC   C3A 5959  11.399   7.354   5.892
  558DOPC   C4A 5960  11.389   7.174   6.342
  558DOPC   C1B 5961  11.509   6.174   4.992
  558DOPC   D2B 5962  11.249   5.974   5.182
  558DOPC   C3B 5963  11.019   5.664   5.452
  558DOPC   C4B 5964  10.929   5.554   5.882
  559DOPC   NC3 5965   5.069  16.484   7.812
  559DOPC   PO4 5966   5.409  16.144   7.872
  559DOPC   GL1 5967   5.449  16.224   7.422
  559DOPC   GL2 5968   5.139  16.204   7.372
  559DOPC   C1A 5969   5.429  16.264   6.952
  559DOPC   D2A 5970   5.159  16.224   6.502
  559DOPC   C3A 5971   5.219  16.264   6.082
  559DOPC   C4A 5972   5.539  16.134   5.712
  559DOPC   C1B 5973   4.859  16.214   6.972
  559DOPC   D2B 5974   4.669  16.054   6.612
  559DOPC   C3B 5975   4.569  15.574   6.602
  559DOPC   C4B 5976   4.329  15.204   6.502
  560DOPC   NC3 5977   6.699  23.071   4.032
  560DOPC   PO4 5978   6.979  23.291   4.282
  560DOPC   GL1 5979   6.989  23.411   4.762
  560DOPC   GL2 5980   7.119  23.671   4.722
  560DOPC   C1A 5981   6.779  23.331   5.162
  560DOPC   D2A 5982   6.589  23.421   5.522
  560DOPC   C3A 5983   6.639  23.171   5.762
  560DOPC   C4A 5984   6.729  22.831   5.912
  560DOPC   C1B 5985   6.999  23.751   5.162
  560DOPC   D2B 5986   6.809  23.861   5.632
  560DOPC   C3B 5987   6.359  23.861   5.722
  560DOPC   C4B 5988   6.049  24.011   5.402
  561DOPC   NC3 5989   9.319   3.714   8.052
  561DOPC   PO4 5990   9.569   3.274   8.082
  561DOPC   GL1 5991   9.749   3.654   7.862
  561DOPC   GL2 5992   9.719   3.994   7.912
  561DOPC   C1A 5993   9.989   3.534   7.442
  561DOPC   D2A 5994  10.489   3.424   7.512
  561DOPC   C3A 5995  10.629   3.634   7.082
  561DOPC   C4A 5996  10.759   3.734   6.602
  561DOPC   C1B 5997   9.579   3.964   7.502
  561DOPC   D2B 5998   9.449   3.974   7.112
  561DOPC   C3B 5999   9.489   4.024   6.642
  561DOPC   C4B 6000   9.569   4.004   6.192
  562DOPC   NC3 6001   0.299  25.321   3.472
  562DOPC   PO4 6002   0.359  24.921   3.362
  562DOPC   GL1 6003   0.239  24.791   3.822
  562DOPC   GL2 6004   0.379  25.051   4.012
  562DOPC   C1A 6005  -0.049  24.591   4.122
  562DOPC   D2A 6006  -0.039  24.441   4.462
  562DOPC   C3A 6007   0.189  24.101   4.422
  562DOPC   C4A 6008   0.239  23.711   4.452
  562DOPC   C1B 6009   0.389  24.781   4.412
  562DOPC   D2B 6010   0.289  24.581   4.822
  562DOPC   C3B 6011   0.439  24.231   4.922
  562DOPC   C4B 6012   0.929  24.201   5.242
  563DOPC   NC3 6013   3.649   3.164   7.372
  563DOPC   PO4 6014   3.719   2.714   7.312
  563DOPC   GL1 6015   3.749   2.624   6.822
  563DOPC   GL2 6016   3.439   2.704   6.562
  563DOPC   C1A 6017   3.649   2.274   6.482
  563DOPC   D2A 6018   3.279   1.934   6.552
  563DOPC   C3A 6019   3.409   1.534   6.442
  563DOPC   C4A 6020   3.219   1.254   6.102
  563DOPC   C1B 6021   3.649   2.944   6.302
  563DOPC   D2B 6022   3.639   3.204   6.092
  563DOPC   C3B 6023   3.749   3.084   5.672
  563DOPC   C4B 6024   3.619   2.764   5.502
  564DOPC   NC3 6025  23.409   4.494   7.602
  564DOPC   PO4 6026  23.409   4.414   7.182
  564DOPC   GL1 6027  23.479   4.384   6.682
  564DOPC   GL2 6028  23.519   4.044   6.612
  564DOPC   C1A 6029  23.559   4.594   6.272
  564DOPC   D2A 6030  23.409   4.854   5.842
  564DOPC   C3A 6031  23.289   5.104   5.592
  564DOPC   C4A 6032  22.929   5.464   5.552
  564DOPC   C1B 6033  23.309   4.034   6.252
  564DOPC   D2B 6034  23.379   4.274   5.762
  564DOPC   C3B 6035  23.189   4.104   5.402
  564DOPC   C4B 6036  22.949   4.064   5.012
  565DOPC   NC3 6037   9.609  23.131   8.372
  565DOPC   PO4 6038   9.399  22.751   8.232
  565DOPC   GL1 6039   9.639  22.741   7.732
  565DOPC   GL2 6040   9.399  22.801   7.552
  565DOPC   C1A 6041   9.859  22.571   7.352
  565DOPC   D2A 6042  10.089  22.311   7.102
  565DOPC   C3A 6043  10.299  22.491   6.792
  565DOPC   C4A 6044  10.659  22.681   6.622
  565DOPC   C1B 6045   9.359  22.471   7.192
  565DOPC   D2B 6046   9.639  22.381   6.812
  565DOPC   C3B 6047   9.839  22.021   6.672
  565DOPC   C4B 6048   9.669  21.711   6.762
  566DOPC   NC3 6049   7.919  18.464   8.502
  566DOPC   PO4 6050   7.799  18.474   8.042
  566DOPC   GL1 6051   7.889  18.614   7.622
  566DOPC   GL2 6052   8.229  18.434   7.642
  566DOPC   C1A 6053   7.809  18.574   7.242
  566DOPC   D2A 6054   7.439  18.664   6.972
  566DOPC   C3A 6055   7.019  18.644   7.052
  566DOPC   C4A 6056   6.579  18.434   7.132
  566DOPC   C1B 6057   8.309  18.464   7.152
  566DOPC   D2B 6058   8.159  18.514   6.662
  566DOPC   C3B 6059   7.809  18.744   6.582
  566DOPC   C4B 6060   7.379  18.894   6.472
  567DOPC   NC3 6061  22.249   7.284   3.002
  567DOPC   PO4 6062  22.109   7.054   3.322
  567DOPC   GL1 6063  22.049   6.924   3.762
  567DOPC   GL2 6064  22.259   7.114   3.832
  567DOPC   C1A 6065  21.919   6.734   4.252
  567DOPC   D2A 6066  21.809   6.404   4.352
  567DOPC   C3A 6067  21.939   6.334   4.742
  567DOPC   C4A 6068  21.799   6.064   4.982
  567DOPC   C1B 6069  22.669   7.344   4.072
  567DOPC   D2B 6070  22.929   7.324   4.432
  567DOPC   C3B 6071  22.899   7.204   4.892
  567DOPC   C4B 6072  22.699   7.154   5.252
  568DOPC   NC3 6073   2.089  16.304   8.312
  568DOPC   PO4 6074   2.049  16.314   7.882
  568DOPC   GL1 6075   1.999  16.254   7.402
  568DOPC   GL2 6076   2.279  16.394   7.142
  568DOPC   C1A 6077   1.859  16.024   7.032
  568DOPC   D2A 6078   1.909  15.914   6.642
  568DOPC   C3A 6079   2.119  15.644   6.312
  568DOPC   C4A 6080   1.989  15.344   6.052
  568DOPC   C1B 6081   2.359  16.274   6.712
  568DOPC   D2B 6082   2.139  16.294   6.352
  568DOPC   C3B 6083   1.869  16.604   6.422
  568DOPC   C4B 6084   1.609  16.734   6.192
  569DOPC   NC3 6085  11.069  20.234   4.772
  569DOPC   PO4 6086  11.299  19.834   4.972
  569DOPC   GL1 6087  11.209  19.624   5.402
  569DOPC   GL2 6088  10.889  19.744   5.402
  569DOPC   C1A 6089  11.069  19.494   5.852
  569DOPC   D2A 6090  10.869  19.684   6.252
  569DOPC   C3A 6091  10.689  20.124   6.262
  569DOPC   C4A 6092  10.759  20.544   6.312
  569DOPC   C1B 6093  10.999  19.964   5.742
  569DOPC   D2B 6094  11.129  20.154   6.122
  569DOPC   C3B 6095  11.059  20.274   6.562
  569DOPC   C4B 6096  11.219  20.614   6.712
  570DOPC   NC3 6097   7.949   9.114   7.922
  570DOPC   PO4 6098   8.059   9.474   8.122
  570DOPC   GL1 6099   8.069   9.594   7.672
  570DOPC   GL2 6100   8.389   9.664   7.602
  570DOPC   C1A 6101   8.159   9.614   7.172
  570DOPC   D2A 6102   7.829   9.514   6.852
  570DOPC   C3A 6103   7.879   9.514   6.512
  570DOPC   C4A 6104   7.609   9.514   6.142
  570DOPC   C1B 6105   8.869   9.614   7.632
  570DOPC   D2B 6106   9.209   9.434   7.692
  570DOPC   C3B 6107   9.419   9.074   7.572
  570DOPC   C4B 6108   9.519   8.654   7.392
  571DOPC   NC3 6109   5.909  16.904   8.002
  571DOPC   PO4 6110   6.319  16.764   7.882
  571DOPC   GL1 6111   6.659  16.754   7.502
  571DOPC   GL2 6112   6.409  16.994   7.272
  571DOPC   C1A 6113   6.919  16.674   7.132
  571DOPC   D2A 6114   7.129  16.234   6.852
  571DOPC   C3A 6115   6.919  15.874   6.622
  571DOPC   C4A 6116   6.649  15.804   6.352
  571DOPC   C1B 6117   6.679  17.254   7.062
  571DOPC   D2B 6118   6.679  17.494   6.752
  571DOPC   C3B 6119   7.059  17.424   6.412
  571DOPC   C4B 6120   7.499  17.314   6.492
  572DOPC   NC3 6121  16.099  24.251   7.892
  572DOPC   PO4 6122  15.689  24.401   7.702
  572DOPC   GL1 6123  15.329  24.551   7.492
  572DOPC   GL2 6124  15.069  24.391   7.592
  572DOPC   C1A 6125  15.359  24.621   7.002
  572DOPC   D2A 6126  15.299  24.471   6.672
  572DOPC   C3A 6127  15.009  24.381   6.322
  572DOPC   C4A 6128  14.969  24.541   5.882
  572DOPC   C1B 6129  14.789  24.511   7.252
  572DOPC   D2B 6130  14.809  24.601   6.792
  572DOPC   C3B 6131  14.909  24.871   6.462
  572DOPC   C4B 6132  15.179  24.961   6.112
  573DOPC   NC3 6133   3.949  19.344   4.102
  573DOPC   PO4 6134   3.879  19.014   4.422
  573DOPC   GL1 6135   3.849  18.794   4.752
  573DOPC   GL2 6136   3.859  18.464   4.682
  573DOPC   C1A 6137   3.419  18.644   4.962
  573DOPC   D2A 6138   3.169  18.724   5.322
  573DOPC   C3A 6139   2.699  18.664   5.532
  573DOPC   C4A 6140   2.349  18.634   5.732
  573DOPC   C1B 6141   3.899  18.384   5.072
  573DOPC   D2B 6142   4.019  18.424   5.432
  573DOPC   C3B 6143   3.979  18.314   5.812
  573DOPC   C4B 6144   3.989  18.634   6.182
  574DOPC   NC3 6145   5.639  24.371   8.272
  574DOPC   PO4 6146   5.869  24.041   8.072
  574DOPC   GL1 6147   5.979  24.231   7.752
  574DOPC   GL2 6148   5.639  24.231   7.622
  574DOPC   C1A 6149   5.919  24.131   7.202
  574DOPC   D2A 6150   5.789  24.071   6.792
  574DOPC   C3A 6151   5.759  23.751   6.512
  574DOPC   C4A 6152   5.589  23.871   6.122
  574DOPC   C1B 6153   5.469  23.961   7.382
  574DOPC   D2B 6154   5.419  23.671   6.922
  574DOPC   C3B 6155   5.279  23.331   6.922
  574DOPC   C4B 6156   4.989  23.081   6.652
  575DOPC   NC3 6157  19.109  15.744   3.592
  575DOPC   PO4 6158  18.959  15.514   3.972
  575DOPC   GL1 6159  18.979  15.414   4.282
  575DOPC   GL2 6160  19.089  15.134   4.422
  575DOPC   C1A 6161  19.299  15.554   4.632
  575DOPC   D2A 6162  19.439  15.504   5.012
  575DOPC   C3A 6163  19.149  15.674   5.292
  575DOPC   C4A 6164  18.899  15.664   5.762
  575DOPC   C1B 6165  18.929  15.164   4.832
  575DOPC   D2B 6166  18.929  15.064   5.232
  575DOPC   C3B 6167  19.249  15.174   5.502
  575DOPC   C4B 6168  19.539  15.244   5.912
  576DOPC   NC3 6169   0.479  15.374   3.832
  576DOPC   PO4 6170   0.589  15.884   3.892
  576DOPC   GL1 6171   0.939  15.694   4.262
  576DOPC   GL2 6172   1.239  15.714   4.242
  576DOPC   C1A 6173   0.899  15.694   4.732
  576DOPC   D2A 6174   0.739  15.624   5.162
  576DOPC   C3A 6175   0.339  15.704   5.252
  576DOPC   C4A 6176   0.289  15.744   5.532
  576DOPC   C1B 6177   1.189  15.414   4.522
  576DOPC   D2B 6178   1.269  15.444   4.992
  576DOPC   C3B 6179   1.239  15.404   5.482
  576DOPC   C4B 6180   1.009  15.124   5.782
  577DOPC   NC3 6181   1.609  16.244   7.662
  577DOPC   PO4 6182   1.249  16.184   7.712
  577DOPC   GL1 6183   1.369  16.014   7.342
  577DOPC   GL2 6184   1.419  15.624   7.312
  577DOPC   C1A 6185   1.389  16.034   6.882
  577DOPC   D2A 6186   1.419  16.134   6.482
  577DOPC   C3A 6187   1.709  16.124   6.152
  577DOPC   C4A 6188   1.769  15.794   5.922
  577DOPC   C1B 6189   1.549  15.564   6.872
  577DOPC   D2B 6190   1.579  15.514   6.482
  577DOPC   C3B 6191   1.649  15.134   6.332
  577DOPC   C4B 6192   1.919  14.854   5.882
  578DOPC   NC3 6193   9.709  13.644   9.052
  578DOPC   PO4 6194   9.329  13.514   8.832
  578DOPC   GL1 6195   9.369  13.474   8.532
  578DOPC   GL2 6196   9.089  13.554   8.312
  578DOPC   C1A 6197   9.429  13.264   8.072
  578DOPC   D2A 6198   9.469  13.274   7.632
  578DOPC   C3A 6199   9.769  12.904   7.462
  578DOPC   C4A 6200   9.999  12.564   7.542
  578DOPC   C1B 6201   9.389  13.804   7.972
  578DOPC   D2B 6202   9.529  13.824   7.502
  578DOPC   C3B 6203   9.189  13.984   7.282
  578DOPC   C4B 6204   8.799  14.014   7.422
  579DOPC   NC3 6205   7.139  15.414   8.222
  579DOPC   PO4 6206   6.759  15.514   8.052
  579DOPC   GL1 6207   6.989  15.634   7.732
  579DOPC   GL2 6208   6.869  15.854   7.512
  579DOPC   C1A 6209   7.229  15.464   7.452
  579DOPC   D2A 6210   7.399  15.264   7.232
  579DOPC   C3A 6211   7.679  14.944   7.452
  579DOPC   C4A 6212   8.039  15.004   7.742
  579DOPC   C1B 6213   6.439  15.734   7.272
  579DOPC   D2B 6214   6.099  15.734   7.252
  579DOPC   C3B 6215   6.069  15.314   6.972
  579DOPC   C4B 6216   5.759  15.064   6.722
  580DOPC   NC3 6217  17.999  16.234   4.122
  580DOPC   PO4 6218  18.379  16.344   4.172
  580DOPC   GL1 6219  18.329  16.424   4.632
  580DOPC   GL2 6220  18.069  16.254   4.732
  580DOPC   C1A 6221  18.549  16.834   4.962
  580DOPC   D2A 6222  18.439  17.184   5.152
  580DOPC   C3A 6223  18.399  17.604   5.192
  580DOPC   C4A 6224  18.559  17.794   5.542
  580DOPC   C1B 6225  17.779  16.334   5.112
  580DOPC   D2B 6226  17.549  16.124   5.352
  580DOPC   C3B 6227  17.599  16.174   5.832
  580DOPC   C4B 6228  17.769  16.314   6.232
  581DOPC   NC3 6229  25.099   6.264   3.142
  581DOPC   PO4 6230  25.119   6.724   3.242
  581DOPC   GL1 6231  25.139   7.004   3.492
  581DOPC   GL2 6232  24.799   7.084   3.542
  581DOPC   C1A 6233  25.389   7.144   3.932
  581DOPC   D2A 6234  25.619   7.254   4.322
  581DOPC   C3A 6235  25.539   7.374   4.632
  581DOPC   C4A 6236  25.449   7.754   4.862
  581DOPC   C1B 6237  24.869   7.034   4.042
  581DOPC   D2B 6238  24.909   6.634   4.312
  581DOPC   C3B 6239  24.529   6.504   4.552
  581DOPC   C4B 6240  24.179   6.474   4.722
  582DOPC   NC3 6241   7.589   8.224   7.572
  582DOPC   PO4 6242   7.959   8.064   7.812
  582DOPC   GL1 6243   8.069   8.194   7.502
  582DOPC   GL2 6244   8.379   8.234   7.462
  582DOPC   C1A 6245   7.949   8.264   7.022
  582DOPC   D2A 6246   7.989   8.604   6.642
  582DOPC   C3A 6247   8.479   8.844   6.622
  582DOPC   C4A 6248   8.719   8.994   6.872
  582DOPC   C1B 6249   8.389   8.414   6.982
  582DOPC   D2B 6250   8.469   8.294   6.622
  582DOPC   C3B 6251   8.129   8.304   6.262
  582DOPC   C4B 6252   7.769   8.324   5.902
  583DOPC   NC3 6253  20.089   6.144   7.752
  583DOPC   PO4 6254  20.339   6.354   7.442
  583DOPC   GL1 6255  20.079   6.184   7.122
  583DOPC   GL2 6256  19.949   6.504   7.042
  583DOPC   C1A 6257  19.639   6.174   6.972
  583DOPC   D2A 6258  19.419   6.274   6.572
  583DOPC   C3A 6259  19.339   5.914   6.312
  583DOPC   C4A 6260  19.109   5.694   5.942
  583DOPC   C1B 6261  20.149   6.814   6.732
  583DOPC   D2B 6262  20.139   7.264   6.492
  583DOPC   C3B 6263  20.419   7.284   6.142
  583DOPC   C4B 6264  20.699   7.034   5.892
  584DOPC   NC3 6265   5.069   2.534   3.582
  584DOPC   PO4 6266   4.719   2.454   3.852
  584DOPC   GL1 6267   4.729   2.114   4.182
  584DOPC   GL2 6268   4.869   1.824   4.242
  584DOPC   C1A 6269   4.379   2.044   4.592
  584DOPC   D2A 6270   4.309   2.094   5.002
  584DOPC   C3A 6271   4.669   2.124   5.232
  584DOPC   C4A 6272   4.859   2.424   5.562
  584DOPC   C1B 6273   4.699   1.594   4.562
  584DOPC   D2B 6274   4.659   1.634   5.042
  584DOPC   C3B 6275   4.569   1.324   5.282
  584DOPC   C4B 6276   4.589   1.304   5.682
  585DOPC   NC3 6277   4.089  16.034   3.762
  585DOPC   PO4 6278   4.189  15.514   3.932
  585DOPC   GL1 6279   4.249  15.714   4.242
  585DOPC   GL2 6280   4.549  16.014   4.292
  585DOPC   C1A 6281   4.509  15.574   4.602
  585DOPC   D2A 6282   4.709  15.484   4.972
  585DOPC   C3A 6283   5.109  15.584   5.032
  585DOPC   C4A 6284   5.419  15.344   5.202
  585DOPC   C1B 6285   4.329  16.024   4.572
  585DOPC   D2B 6286   4.319  16.304   4.942
  585DOPC   C3B 6287   4.079  16.044   5.302
  585DOPC   C4B 6288   3.709  15.884   5.532
  586DOPC   NC3 6289  10.969  15.074   5.322
  586DOPC   PO4 6290  11.349  14.814   5.302
  586DOPC   GL1 6291  11.519  15.014   5.562
  586DOPC   GL2 6292  11.659  14.704   5.692
  586DOPC   C1A 6293  11.749  15.204   5.902
  586DOPC   D2A 6294  11.699  15.224   6.362
  586DOPC   C3A 6295  11.289  15.464   6.552
  586DOPC   C4A 6296  10.829  15.364   6.592
  586DOPC   C1B 6297  11.389  14.804   6.142
  586DOPC   D2B 6298  11.219  14.994   6.482
  586DOPC   C3B 6299  11.439  15.094   6.792
  586DOPC   C4B 6300  11.309  15.194   7.092
  587DOPC   NC3 6301  21.669  10.694   7.172
  587DOPC   PO4 6302  21.939  11.054   7.132
  587DOPC   GL1 6303  21.659  11.034   6.792
  587DOPC   GL2 6304  21.329  10.894   6.862
  587DOPC   C1A 6305  21.659  11.194   6.332
  587DOPC   D2A 6306  21.639  11.264   5.932
  587DOPC   C3A 6307  21.299  11.364   5.672
  587DOPC   C4A 6308  20.859  11.494   5.852
  587DOPC   C1B 6309  21.139  10.884   6.522
  587DOPC   D2B 6310  21.139  11.054   6.092
  587DOPC   C3B 6311  21.359  10.834   5.752
  587DOPC   C4B 6312  21.669  11.054   5.502
  588DOPC   NC3 6313  21.959  21.411   7.682
  588DOPC   PO4 6314  21.949  21.344   7.172
  588DOPC   GL1 6315  21.849  21.254   6.812
  588DOPC   GL2 6316  21.699  20.944   6.892
  588DOPC   C1A 6317  21.849  21.354   6.342
  588DOPC   D2A 6318  21.929  21.224   5.962
  588DOPC   C3A 6319  21.689  21.224   5.532
  588DOPC   C4A 6320  21.369  21.004   5.242
  588DOPC   C1B 6321  21.649  20.654   6.542
  588DOPC   D2B 6322  21.759  20.804   6.212
  588DOPC   C3B 6323  21.439  21.074   6.012
  588DOPC   C4B 6324  21.019  20.904   5.822
  589DOPC   NC3 6325   7.689  11.314   3.732
  589DOPC   PO4 6326   7.289  11.494   3.662
  589DOPC   GL1 6327   7.329  11.474   4.122
  589DOPC   GL2 6328   7.689  11.604   4.162
  589DOPC   C1A 6329   7.329  11.454   4.522
  589DOPC   D2A 6330   6.929  11.444   4.742
  589DOPC   C3A 6331   6.839  11.394   5.162
  589DOPC   C4A 6332   6.919  11.314   5.612
  589DOPC   C1B 6333   7.639  11.924   4.532
  589DOPC   D2B 6334   7.459  12.234   4.522
  589DOPC   C3B 6335   7.049  12.304   4.392
  589DOPC   C4B 6336   6.699  12.514   4.252
  590DOPC   NC3 6337   9.629   6.774   3.762
  590DOPC   PO4 6338   9.999   6.704   4.252
  590DOPC   GL1 6339   9.899   6.554   4.622
  590DOPC   GL2 6340   9.769   6.254   4.632
  590DOPC   C1A 6341   9.649   6.724   4.982
  590DOPC   D2A 6342   9.449   6.734   5.332
  590DOPC   C3A 6343   8.979   6.744   5.332
  590DOPC   C4A 6344   8.679   6.634   5.192
  590DOPC   C1B 6345  10.119   6.124   4.752
  590DOPC   D2B 6346  10.389   5.754   4.762
  590DOPC   C3B 6347  10.759   5.454   5.032
  590DOPC   C4B 6348  11.129   5.214   5.002
  591DOPC   NC3 6349   4.009  24.181   3.732
  591DOPC   PO4 6350   3.699  23.951   3.952
  591DOPC   GL1 6351   3.869  24.071   4.412
  591DOPC   GL2 6352   4.139  23.781   4.462
  591DOPC   C1A 6353   3.849  24.141   4.822
  591DOPC   D2A 6354   3.709  24.461   5.202
  591DOPC   C3A 6355   4.069  24.401   5.492
  591DOPC   C4A 6356   4.439  24.641   5.522
  591DOPC   C1B 6357   4.139  23.431   4.742
  591DOPC   D2B 6358   3.949  23.581   5.122
  591DOPC   C3B 6359   3.789  23.931   5.262
  591DOPC   C4B 6360   3.649  24.151   5.662
  592DOPC   NC3 6361  20.189  12.394   7.742
  592DOPC   PO4 6362  20.559  12.254   7.662
  592DOPC   GL1 6363  20.659  12.434   7.292
  592DOPC   GL2 6364  20.599  12.774   7.112
  592DOPC   C1A 6365  20.399  12.444   6.852
  592DOPC   D2A 6366  20.129  12.244   6.562
  592DOPC   C3A 6367  20.319  12.274   6.172
  592DOPC   C4A 6368  20.779  12.094   6.022
  592DOPC   C1B 6369  20.809  12.864   6.722
  592DOPC   D2B 6370  20.719  13.214   6.482
  592DOPC   C3B 6371  20.679  13.124   5.982
  592DOPC   C4B 6372  20.509  12.854   5.662
  593DOPC   NC3 6373  10.479  18.094   8.902
  593DOPC   PO4 6374  10.749  18.184   8.692
  593DOPC   GL1 6375  10.939  18.114   8.342
  593DOPC   GL2 6376  10.939  18.414   8.212
  593DOPC   C1A 6377  10.709  17.994   7.952
  593DOPC   D2A 6378  10.569  18.194   7.532
  593DOPC   C3A 6379  10.149  18.094   7.292
  593DOPC   C4A 6380   9.979  17.974   6.932
  593DOPC   C1B 6381  10.989  18.574   7.762
  593DOPC   D2B 6382  10.919  18.534   7.422
  593DOPC   C3B 6383  10.599  18.644   7.202
  593DOPC   C4B 6384  10.339  19.004   6.972
  594DOPC   NC3 6385  24.329   3.274   7.152
  594DOPC   PO4 6386  24.679   3.094   7.332
  594DOPC   GL1 6387  24.659   3.044   6.852
  594DOPC   GL2 6388  24.389   3.174   6.612
  594DOPC   C1A 6389  24.649   2.764   6.552
  594DOPC   D2A 6390  24.749   2.654   6.202
  594DOPC   C3A 6391  24.349   2.644   5.922
  594DOPC   C4A 6392  23.929   2.544   5.722
  594DOPC   C1B 6393  24.469   3.104   6.122
  594DOPC   D2B 6394  24.379   3.174   5.752
  594DOPC   C3B 6395  24.279   2.934   5.442
  594DOPC   C4B 6396  23.909   2.694   5.252
  595DOPC   NC3 6397  21.999   7.934   7.262
  595DOPC   PO4 6398  21.709   8.254   7.092
  595DOPC   GL1 6399  21.519   8.334   6.672
  595DOPC   GL2 6400  21.229   8.234   6.762
  595DOPC   C1A 6401  21.579   8.014   6.302
  595DOPC   D2A 6402  21.819   7.754   5.912
  595DOPC   C3A 6403  22.119   7.704   5.622
  595DOPC   C4A 6404  22.279   7.464   5.322
  595DOPC   C1B 6405  21.059   8.004   6.442
  595DOPC   D2B 6406  20.669   7.814   6.172
  595DOPC   C3B 6407  20.869   7.504   5.922
  595DOPC   C4B 6408  20.719   7.334   5.482
  596DOPC   NC3 6409  20.679   4.944   7.582
  596DOPC   PO4 6410  21.069   4.694   7.362
  596DOPC   GL1 6411  21.069   4.894   7.012
  596DOPC   GL2 6412  21.149   5.224   6.952
  596DOPC   C1A 6413  21.169   4.904   6.552
  596DOPC   D2A 6414  21.279   4.864   6.112
  596DOPC   C3A 6415  21.419   4.544   5.792
  596DOPC   C4A 6416  21.479   4.334   5.372
  596DOPC   C1B 6417  20.979   5.374   6.572
  596DOPC   D2B 6418  20.879   5.114   6.192
  596DOPC   C3B 6419  20.569   5.284   5.832
  596DOPC   C4B 6420  20.169   5.544   5.662
  597DOPC   NC3 6421   4.519  11.604   3.502
  597DOPC   PO4 6422   4.459  12.094   3.542
  597DOPC   GL1 6423   4.539  11.894   4.002
  597DOPC   GL2 6424   4.729  11.654   4.172
  597DOPC   C1A 6425   4.689  12.114   4.472
  597DOPC   D2A 6426   4.679  12.024   4.932
  597DOPC   C3A 6427   5.019  12.054   5.232
  597DOPC   C4A 6428   5.329  11.704   5.392
  597DOPC   C1B 6429   4.439  11.534   4.422
  597DOPC   D2B 6430   4.329  11.704   4.712
  597DOPC   C3B 6431   4.399  11.604   5.182
  597DOPC   C4B 6432   4.639  11.334   5.412
  598DOPC   NC3 6433  12.829   8.964   8.602
  598DOPC   PO4 6434  13.219   8.864   8.312
  598DOPC   GL1 6435  13.199   8.794   7.982
  598DOPC   GL2 6436  13.339   9.034   7.842
  598DOPC   C1A 6437  12.929   8.614   7.612
  598DOPC   D2A 6438  12.979   8.704   7.112
  598DOPC   C3A 6439  13.389   8.614   7.012
  598DOPC   C4A 6440  13.749   8.344   7.052
  598DOPC   C1B 6441  13.109   9.074   7.502
  598DOPC   D2B 6442  13.029   9.274   7.192
  598DOPC   C3B 6443  12.929   9.074   6.762
  598DOPC   C4B 6444  12.619   8.654   6.582
  599DOPC   NC3 6445   4.409  14.224   3.582
  599DOPC   PO4 6446   4.549  13.894   3.702
  599DOPC   GL1 6447   4.179  13.974   3.992
  599DOPC   GL2 6448   3.829  13.784   3.942
  599DOPC   C1A 6449   4.219  14.034   4.462
  599DOPC   D2A 6450   4.529  14.244   4.802
  599DOPC   C3A 6451   4.479  14.094   5.132
  599DOPC   C4A 6452   4.699  14.064   5.592
  599DOPC   C1B 6453   3.709  14.004   4.252
  599DOPC   D2B 6454   3.349  14.314   4.302
  599DOPC   C3B 6455   3.539  14.654   4.522
  599DOPC   C4B 6456   3.589  14.514   4.982
  600DOPC   NC3 6457  16.199  19.554   7.672
  600DOPC   PO4 6458  16.659  19.444   7.692
  600DOPC   GL1 6459  16.649  19.414   7.272
  600DOPC   GL2 6460  16.609  19.204   7.092
  600DOPC   C1A 6461  16.319  19.634   6.992
  600DOPC   D2A 6462  15.989  19.684   6.652
  600DOPC   C3A 6463  15.839  19.384   6.412
  600DOPC   C4A 6464  15.989  19.084   6.142
  600DOPC   C1B 6465  16.619  18.934   6.682
  600DOPC   D2B 6466  16.489  18.884   6.192
  600DOPC   C3B 6467  16.599  19.184   5.982
  600DOPC   C4B 6468  16.469  19.674   5.682
  601DOPC   NC3 6469  14.269  17.884   8.582
  601DOPC   PO4 6470  13.959  17.744   8.482
  601DOPC   GL1 6471  13.609  17.664   8.112
  601DOPC   GL2 6472  13.419  18.004   8.182
  601DOPC   C1A 6473  13.529  17.624   7.622
  601DOPC   D2A 6474  13.689  17.484   7.242
  601DOPC   C3A 6475  13.729  17.104   6.972
  601DOPC   C4A 6476  13.659  16.694   6.852
  601DOPC   C1B 6477  13.769  18.084   7.792
  601DOPC   D2B 6478  13.829  18.004   7.282
  601DOPC   C3B 6479  14.189  17.834   7.152
  601DOPC   C4B 6480  14.619  17.614   7.162
  602DOPC   NC3 6481  23.719   3.404   7.632
  602DOPC   PO4 6482  23.859   3.494   7.282
  602DOPC   GL1 6483  23.949   3.474   6.862
  602DOPC   GL2 6484  23.979   3.834   6.722
  602DOPC   C1A 6485  23.959   3.314   6.422
  602DOPC   D2A 6486  23.979   3.374   5.902
  602DOPC   C3A 6487  23.839   3.084   5.622
  602DOPC   C4A 6488  23.419   3.014   5.302
  602DOPC   C1B 6489  23.949   3.814   6.262
  602DOPC   D2B 6490  23.719   4.154   6.032
  602DOPC   C3B 6491  23.889   4.514   5.842
  602DOPC   C4B 6492  24.089   4.574   5.482
  603DOPC   NC3 6493   8.199  15.114   4.552
  603DOPC   PO4 6494   8.649  15.264   4.322
  603DOPC   GL1 6495   8.759  15.064   4.802
  603DOPC   GL2 6496   8.959  15.264   4.922
  603DOPC   C1A 6497   8.699  15.124   5.342
  603DOPC   D2A 6498   8.499  15.164   5.732
  603DOPC   C3A 6499   8.509  14.704   5.852
  603DOPC   C4A 6500   8.199  14.454   6.012
  603DOPC   C1B 6501   9.209  15.124   5.332
  603DOPC   D2B 6502   8.979  14.864   5.662
  603DOPC   C3B 6503   8.959  14.694   6.012
  603DOPC   C4B 6504   8.779  14.394   6.322
  604DOPC   NC3 6505   6.289  11.274   3.722
  604DOPC   PO4 6506   5.949  11.014   3.662
  604DOPC   GL1 6507   6.089  10.834   4.102
  604DOPC   GL2 6508   6.289  10.584   4.062
  604DOPC   C1A 6509   6.239  10.874   4.452
  604DOPC   D2A 6510   6.399  10.624   4.782
  604DOPC   C3A 6511   6.229  10.404   5.072
  604DOPC   C4A 6512   5.999  10.024   5.212
  604DOPC   C1B 6513   6.399  10.354   4.342
  604DOPC   D2B 6514   6.749  10.284   4.632
  604DOPC   C3B 6515   6.759  10.364   5.032
  604DOPC   C4B 6516   7.109  10.414   5.212
  605DOPC   NC3 6517   4.109   4.964   3.132
  605DOPC   PO4 6518   4.209   4.814   3.522
  605DOPC   GL1 6519   4.049   4.964   3.852
  605DOPC   GL2 6520   3.869   4.744   3.952
  605DOPC   C1A 6521   4.159   5.354   4.002
  605DOPC   D2A 6522   4.519   5.434   4.352
  605DOPC   C3A 6523   4.309   5.844   4.622
  605DOPC   C4A 6524   4.259   5.984   5.072
  605DOPC   C1B 6525   3.829   5.074   4.272
  605DOPC   D2B 6526   4.039   5.274   4.512
  605DOPC   C3B 6527   4.319   5.324   4.852
  605DOPC   C4B 6528   4.509   5.584   5.072
  606DOPC   NC3 6529  23.659  16.824   3.442
  606DOPC   PO4 6530  23.399  16.914   3.832
  606DOPC   GL1 6531  23.409  16.854   4.252
  606DOPC   GL2 6532  23.599  17.104   4.232
  606DOPC   C1A 6533  23.029  16.554   4.482
  606DOPC   D2A 6534  22.819  16.414   4.852
  606DOPC   C3A 6535  22.349  16.524   5.132
  606DOPC   C4A 6536  22.119  16.784   5.492
  606DOPC   C1B 6537  23.799  16.974   4.632
  606DOPC   D2B 6538  23.909  17.214   5.072
  606DOPC   C3B 6539  23.529  17.094   5.292
  606DOPC   C4B 6540  23.059  17.174   5.342
  607DOPC   NC3 6541  10.309  23.111   4.522
  607DOPC   PO4 6542  10.239  23.551   4.282
  607DOPC   GL1 6543   9.889  23.561   4.522
  607DOPC   GL2 6544   9.959  23.411   4.732
  607DOPC   C1A 6545   9.689  24.001   4.772
  607DOPC   D2A 6546   9.819  24.431   5.002
  607DOPC   C3A 6547   9.969  24.271   5.412
  607DOPC   C4A 6548   9.749  24.171   5.752
  607DOPC   C1B 6549   9.789  23.591   5.052
  607DOPC   D2B 6550   9.529  23.901   5.282
  607DOPC   C3B 6551   9.349  23.831   5.692
  607DOPC   C4B 6552   9.219  23.701   6.022
  608DOPC   NC3 6553  19.659  21.861   3.952
  608DOPC   PO4 6554  19.519  22.031   4.402
  608DOPC   GL1 6555  19.789  22.051   4.722
  608DOPC   GL2 6556  19.619  21.991   4.932
  608DOPC   C1A 6557  19.979  22.281   5.142
  608DOPC   D2A 6558  20.069  22.461   5.512
  608DOPC   C3A 6559  19.979  22.631   5.892
  608DOPC   C4A 6560  19.949  23.001   6.232
  608DOPC   C1B 6561  19.479  21.571   5.252
  608DOPC   D2B 6562  19.239  21.521   5.542
  608DOPC   C3B 6563  19.229  21.294   5.822
  608DOPC   C4B 6564  19.109  20.934   5.972
  609DOPC   NC3 6565   8.239   2.144   4.142
  609DOPC   PO4 6566   8.679   2.074   4.372
  609DOPC   GL1 6567   8.359   2.004   4.662
  609DOPC   GL2 6568   8.489   2.244   4.902
  609DOPC   C1A 6569   8.039   2.304   4.692
  609DOPC   D2A 6570   7.619   2.284   4.622
  609DOPC   C3A 6571   7.359   1.994   4.892
  609DOPC   C4A 6572   7.389   1.954   5.322
  609DOPC   C1B 6573   8.159   2.344   5.192
  609DOPC   D2B 6574   7.799   2.224   5.402
  609DOPC   C3B 6575   7.589   2.064   5.822
  609DOPC   C4B 6576   7.339   1.864   6.102
  610DOPC   NC3 6577  11.999   7.304   8.592
  610DOPC   PO4 6578  12.209   7.464   8.082
  610DOPC   GL1 6579  12.289   7.404   7.622
  610DOPC   GL2 6580  12.619   7.454   7.542
  610DOPC   C1A 6581  12.189   7.144   7.372
  610DOPC   D2A 6582  12.009   7.334   7.012
  610DOPC   C3A 6583  11.749   7.074   6.682
  610DOPC   C4A 6584  11.749   6.794   6.322
  610DOPC   C1B 6585  12.439   7.604   7.112
  610DOPC   D2B 6586  12.399   7.684   6.672
  610DOPC   C3B 6587  12.569   7.364   6.412
  610DOPC   C4B 6588  12.299   7.134   6.172
  611DOPC   NC3 6589  11.579  19.814  11.022
  611DOPC   PO4 6590  11.549  20.284  10.972
  611DOPC   GL1 6591  11.509  20.174  11.462
  611DOPC   GL2 6592  11.379  19.924  11.532
  611DOPC   C1A 6593  11.679  20.094  11.902
  611DOPC   D2A 6594  11.809  20.034  12.192
  611DOPC   C3A 6595  11.589  20.214  12.492
  611DOPC   C4A 6596  11.619  20.554  12.702
  611DOPC   C1B 6597  11.499  19.674  11.932
  611DOPC   D2B 6598  11.499  19.654  12.422
  611DOPC   C3B 6599  11.389  19.164  12.582
  611DOPC   C4B 6600  11.489  18.734  12.702
  612DOPC   NC3 6601  18.779   2.944   7.702
  612DOPC   PO4 6602  19.029   2.624   7.412
  612DOPC   GL1 6603  18.719   2.744   7.132
  612DOPC   GL2 6604  18.599   3.034   7.262
  612DOPC   C1A 6605  18.279   2.724   6.812
  612DOPC   D2A 6606  18.099   2.874   6.532
  612DOPC   C3A 6607  18.049   2.934   6.072
  612DOPC   C4A 6608  17.929   3.084   5.652
  612DOPC   C1B 6609  18.509   3.154   6.892
  612DOPC   D2B 6610  18.699   2.944   6.612
  612DOPC   C3B 6611  18.539   2.654   6.382
  612DOPC   C4B 6612  18.299   2.514   6.122
  613DOPC   NC3 6613  16.449  12.434   8.072
  613DOPC   PO4 6614  16.919  12.484   8.272
  613DOPC   GL1 6615  16.949  12.384   7.862
  613DOPC   GL2 6616  16.709  12.494   7.642
  613DOPC   C1A 6617  17.089  12.174   7.452
  613DOPC   D2A 6618  17.339  12.194   7.072
  613DOPC   C3A 6619  17.159  12.294   6.742
  613DOPC   C4A 6620  16.649  12.234   6.762
  613DOPC   C1B 6621  16.469  12.754   7.352
  613DOPC   D2B 6622  16.339  12.664   6.892
  613DOPC   C3B 6623  16.379  12.574   6.532
  613DOPC   C4B 6624  16.759  12.424   6.302
  614DOPC   NC3 6625  12.359   9.114   8.212
  614DOPC   PO4 6626  12.699   9.354   8.312
  614DOPC   GL1 6627  12.939   9.284   8.112
  614DOPC   GL2 6628  12.719   9.104   7.812
  614DOPC   C1A 6629  13.149   9.534   7.702
  614DOPC   D2A 6630  13.079   9.744   7.262
  614DOPC   C3A 6631  13.149  10.044   6.992
  614DOPC   C4A 6632  13.209  10.324   6.592
  614DOPC   C1B 6633  12.589   9.004   7.382
  614DOPC   D2B 6634  12.269   8.894   7.032
  614DOPC   C3B 6635  11.909   8.744   6.772
  614DOPC   C4B 6636  12.029   8.594   6.312
  615DOPC   NC3 6637   3.319   9.804   7.462
  615DOPC   PO4 6638   3.829   9.664   7.332
  615DOPC   GL1 6639   3.789   9.844   6.852
  615DOPC   GL2 6640   3.759  10.264   6.682
  615DOPC   C1A 6641   4.009   9.894   6.442
  615DOPC   D2A 6642   4.129  10.184   6.262
  615DOPC   C3A 6643   4.119  10.244   5.882
  615DOPC   C4A 6644   4.009  10.524   5.632
  615DOPC   C1B 6645   3.929  10.624   6.532
  615DOPC   D2B 6646   4.129  11.014   6.532
  615DOPC   C3B 6647   4.199  11.324   6.152
  615DOPC   C4B 6648   4.449  11.404   5.852
  616DOPC   NC3 6649  15.229  -0.136   4.042
  616DOPC   PO4 6650  15.389   0.344   4.012
  616DOPC   GL1 6651  15.529   0.264   4.472
  616DOPC   GL2 6652  15.409   0.504   4.572
  616DOPC   C1A 6653  15.639   0.154   4.922
  616DOPC   D2A 6654  15.599  -0.086   5.312
  616DOPC   C3A 6655  15.759  -0.006   5.712
  616DOPC   C4A 6656  16.079  -0.196   5.922
  616DOPC   C1B 6657  15.379   0.624   5.012
  616DOPC   D2B 6658  15.509   0.404   5.412
  616DOPC   C3B 6659  15.829   0.444   5.352
  616DOPC   C4B 6660  16.079   0.314   5.022
  617DOPC   NC3 6661   6.099  25.351   8.382
  617DOPC   PO4 6662   6.009  25.111   7.942
  617DOPC   GL1 6663   5.919  25.041   7.562
  617DOPC   GL2 6664   5.739  25.241   7.292
  617DOPC   C1A 6665   6.069  24.811   7.182
  617DOPC   D2A 6666   6.319  24.821   6.842
  617DOPC   C3A 6667   6.439  24.771   6.392
  617DOPC   C4A 6668   6.409  25.001   6.072
  617DOPC   C1B 6669   5.639  25.081   6.942
  617DOPC   D2B 6670   5.729  24.841   6.432
  617DOPC   C3B 6671   5.419  24.811   6.082
  617DOPC   C4B 6672   5.039  24.941   6.042
  618DOPC   NC3 6673  19.929   2.724   3.752
  618DOPC   PO4 6674  20.079   2.424   3.512
  618DOPC   GL1 6675  20.069   2.264   4.022
  618DOPC   GL2 6676  20.309   2.164   4.122
  618DOPC   C1A 6677  19.869   2.234   4.382
  618DOPC   D2A 6678  19.799   2.444   4.722
  618DOPC   C3A 6679  20.149   2.514   4.852
  618DOPC   C4A 6680  20.399   2.384   5.182
  618DOPC   C1B 6681  20.349   2.444   4.402
  618DOPC   D2B 6682  20.099   2.784   4.372
  618DOPC   C3B 6683  20.409   3.214   4.382
  618DOPC   C4B 6684  20.769   3.574   4.502
  619DOPC   NC3 6685   6.419  18.434   3.812
  619DOPC   PO4 6686   6.569  18.184   4.282
  619DOPC   GL1 6687   6.319  18.314   4.672
  619DOPC   GL2 6688   6.379  18.574   4.772
  619DOPC   C1A 6689   6.009  18.314   5.032
  619DOPC   D2A 6690   5.969  18.074   5.362
  619DOPC   C3A 6691   6.029  17.884   5.692
  619DOPC   C4A 6692   5.969  17.544   5.912
  619DOPC   C1B 6693   5.989  18.834   4.942
  619DOPC   D2B 6694   5.719  19.054   5.232
  619DOPC   C3B 6695   5.329  19.194   5.482
  619DOPC   C4B 6696   4.939  19.124   5.662
  620DOPC   NC3 6697  10.129  19.704   4.962
  620DOPC   PO4 6698   9.979  19.304   4.712
  620DOPC   GL1 6699  10.029  19.274   5.132
  620DOPC   GL2 6700  10.269  18.984   5.222
  620DOPC   C1A 6701   9.669  19.214   5.462
  620DOPC   D2A 6702   9.779  19.464   5.802
  620DOPC   C3A 6703   9.849  19.274   6.172
  620DOPC   C4A 6704  10.089  18.904   6.342
  620DOPC   C1B 6705  10.159  18.984   5.752
  620DOPC   D2B 6706   9.839  18.894   5.912
  620DOPC   C3B 6707   9.719  18.564   6.182
  620DOPC   C4B 6708   9.729  18.414   6.592
  621DOPC   NC3 6709   4.969  19.774   4.422
  621DOPC   PO4 6710   5.319  20.104   4.422
  621DOPC   GL1 6711   5.239  20.204   4.812
  621DOPC   GL2 6712   5.079  20.544   4.642
  621DOPC   C1A 6713   5.089  20.064   5.272
  621DOPC   D2A 6714   5.039  20.054   5.702
  621DOPC   C3A 6715   4.729  19.944   5.882
  621DOPC   C4A 6716   4.549  19.834   6.302
  621DOPC   C1B 6717   5.059  20.854   5.032
  621DOPC   D2B 6718   4.829  21.054   5.262
  621DOPC   C3B 6719   4.809  21.294   5.672
  621DOPC   C4B 6720   4.749  21.174   6.122
  622DOPC   NC3 6721  10.979   9.394   8.432
  622DOPC   PO4 6722  11.009   9.844   8.342
  622DOPC   GL1 6723  10.889   9.904   7.972
  622DOPC   GL2 6724  10.849   9.574   7.782
  622DOPC   C1A 6725  10.869   9.994   7.542
  622DOPC   D2A 6726  10.699  10.064   7.262
  622DOPC   C3A 6727  10.949  10.094   6.902
  622DOPC   C4A 6728  11.059   9.914   6.512
  622DOPC   C1B 6729  10.829   9.524   7.312
  622DOPC   D2B 6730  11.089   9.564   6.902
  622DOPC   C3B 6731  11.359   9.854   6.962
  622DOPC   C4B 6732  11.589  10.104   7.302
  623DOPC   NC3 6733  14.399   4.894   8.402
  623DOPC   PO4 6734  14.489   5.204   8.252
  623DOPC   GL1 6735  14.709   5.434   7.972
  623DOPC   GL2 6736  14.759   5.884   7.942
  623DOPC   C1A 6737  14.989   5.524   7.612
  623DOPC   D2A 6738  15.179   5.284   7.202
  623DOPC   C3A 6739  14.989   5.124   6.812
  623DOPC   C4A 6740  15.019   4.964   6.442
  623DOPC   C1B 6741  14.519   5.734   7.572
  623DOPC   D2B 6742  14.729   5.424   7.212
  623DOPC   C3B 6743  15.009   5.624   6.812
  623DOPC   C4B 6744  15.199   5.514   6.462
  624DOPC   NC3 6745  20.679  13.764   7.592
  624DOPC   PO4 6746  20.729  14.134   7.422
  624DOPC   GL1 6747  20.669  13.924   7.102
  624DOPC   GL2 6748  20.919  13.694   7.102
  624DOPC   C1A 6749  20.599  13.924   6.622
  624DOPC   D2A 6750  20.629  13.684   6.252
  624DOPC   C3A 6751  20.409  13.734   5.802
  624DOPC   C4A 6752  20.049  14.024   5.632
  624DOPC   C1B 6753  21.019  13.494   6.812
  624DOPC   D2B 6754  21.219  13.484   6.372
  624DOPC   C3B 6755  20.989  13.564   5.922
  624DOPC   C4B 6756  21.189  13.714   5.522
  625DOPC   NC3 6757  14.169  22.191   8.502
  625DOPC   PO4 6758  13.759  22.411   8.582
  625DOPC   GL1 6759  13.849  22.221   8.132
  625DOPC   GL2 6760  14.099  22.161   7.992
  625DOPC   C1A 6761  13.859  22.471   7.652
  625DOPC   D2A 6762  13.829  22.491   7.182
  625DOPC   C3A 6763  13.559  22.211   6.992
  625DOPC   C4A 6764  13.219  22.201   6.622
  625DOPC   C1B 6765  14.149  21.831   7.622
  625DOPC   D2B 6766  13.959  21.431   7.772
  625DOPC   C3B 6767  14.189  21.194   7.552
  625DOPC   C4B 6768  14.409  21.074   7.162
  626DOPC   NC3 6769   0.739  16.224   3.562
  626DOPC   PO4 6770   0.699  16.644   3.712
  626DOPC   GL1 6771   0.709  16.374   4.062
  626DOPC   GL2 6772   0.959  16.184   4.152
  626DOPC   C1A 6773   0.579  16.154   4.462
  626DOPC   D2A 6774   0.529  16.024   4.892
  626DOPC   C3A 6775   0.209  16.254   5.172
  626DOPC   C4A 6776  -0.049  16.514   5.482
  626DOPC   C1B 6777   1.059  16.214   4.622
  626DOPC   D2B 6778   0.879  16.384   5.022
  626DOPC   C3B 6779   0.819  16.614   5.352
  626DOPC   C4B 6780   0.549  16.864   5.682
  627DOPC   NC3 6781  17.309  23.751   8.062
  627DOPC   PO4 6782  17.459  23.801   7.622
  627DOPC   GL1 6783  17.459  23.941   7.222
  627DOPC   GL2 6784  17.789  24.081   7.102
  627DOPC   C1A 6785  17.469  23.881   6.752
  627DOPC   D2A 6786  17.459  23.941   6.352
  627DOPC   C3A 6787  17.369  24.211   6.092
  627DOPC   C4A 6788  17.219  24.501   5.862
  627DOPC   C1B 6789  17.889  24.181   6.692
  627DOPC   D2B 6790  17.859  24.311   6.292
  627DOPC   C3B 6791  17.729  24.691   6.062
  627DOPC   C4B 6792  17.899  24.521   5.692
  628DOPC   NC3 6793  13.419  16.034   8.632
  628DOPC   PO4 6794  13.269  16.444   8.622
  628DOPC   GL1 6795  12.939  16.214   8.462
  628DOPC   GL2 6796  13.029  16.354   8.182
  628DOPC   C1A 6797  13.079  15.844   8.142
  628DOPC   D2A 6798  13.359  15.784   7.752
  628DOPC   C3A 6799  13.219  15.474   7.502
  628DOPC   C4A 6800  13.329  15.354   7.122
  628DOPC   C1B 6801  13.309  16.264   7.912
  628DOPC   D2B 6802  13.209  16.244   7.582
  628DOPC   C3B 6803  13.009  15.964   7.302
  628DOPC   C4B 6804  12.809  15.534   7.222
  629DOPC   NC3 6805  15.889  17.214   8.502
  629DOPC   PO4 6806  16.069  17.054   8.192
  629DOPC   GL1 6807  15.839  17.004   7.672
  629DOPC   GL2 6808  15.939  16.794   7.432
  629DOPC   C1A 6809  15.499  17.114   7.252
  629DOPC   D2A 6810  15.159  17.054   7.042
  629DOPC   C3A 6811  15.009  17.374   7.262
  629DOPC   C4A 6812  15.099  17.624   7.642
  629DOPC   C1B 6813  16.179  16.544   7.102
  629DOPC   D2B 6814  15.989  16.114   6.942
  629DOPC   C3B 6815  15.979  15.774   7.212
  629DOPC   C4B 6816  16.009  15.494   7.572
  630DOPC   NC3 6817   6.529  24.251   7.862
  630DOPC   PO4 6818   6.309  23.871   7.922
  630DOPC   GL1 6819   6.319  23.751   7.422
  630DOPC   GL2 6820   6.379  23.441   7.312
  630DOPC   C1A 6821   6.299  23.861   7.072
  630DOPC   D2A 6822   6.299  23.741   6.692
  630DOPC   C3A 6823   6.209  23.921   6.222
  630DOPC   C4A 6824   6.119  24.231   5.942
  630DOPC   C1B 6825   6.639  23.471   6.992
  630DOPC   D2B 6826   6.739  23.901   6.762
  630DOPC   C3B 6827   7.189  23.761   6.832
  630DOPC   C4B 6828   7.359  23.681   7.122
  631DOPC   NC3 6829   4.669  12.154   7.482
  631DOPC   PO4 6830   5.099  12.044   7.512
  631DOPC   GL1 6831   5.039  12.114   7.092
  631DOPC   GL2 6832   5.239  12.254   6.862
  631DOPC   C1A 6833   4.929  11.824   6.772
  631DOPC   D2A 6834   5.309  11.674   6.532
  631DOPC   C3A 6835   5.499  11.754   6.152
  631DOPC   C4A 6836   5.729  11.854   5.672
  631DOPC   C1B 6837   4.919  12.364   6.632
  631DOPC   D2B 6838   4.589  12.024   6.462
  631DOPC   C3B 6839   4.619  11.894   6.052
  631DOPC   C4B 6840   4.719  11.784   5.582
  632DOPC   NC3 6841  24.689  24.481   3.652
  632DOPC   PO4 6842  24.389  24.031   3.882
  632DOPC   GL1 6843  24.179  24.201   4.282
  632DOPC   GL2 6844  23.979  24.451   4.402
  632DOPC   C1A 6845  24.239  24.291   4.802
  632DOPC   D2A 6846  24.279  24.361   5.122
  632DOPC   C3A 6847  24.069  24.551   5.402
  632DOPC   C4A 6848  23.999  24.931   5.642
  632DOPC   C1B 6849  23.929  24.681   4.842
  632DOPC   D2B 6850  23.599  24.791   5.282
  632DOPC   C3B 6851  23.599  24.651   5.742
  632DOPC   C4B 6852  23.409  24.391   5.982
  633DOPC   NC3 6853  16.219  20.644  11.352
  633DOPC   PO4 6854  16.439  20.594  11.732
  633DOPC   GL1 6855  16.629  20.654  12.152
  633DOPC   GL2 6856  16.669  20.904  12.272
  633DOPC   C1A 6857  16.679  20.494  12.542
  633DOPC   D2A 6858  16.519  20.294  12.802
  633DOPC   C3A 6859  16.709  19.854  12.672
  633DOPC   C4A 6860  17.049  19.714  12.442
  633DOPC   C1B 6861  16.469  21.044  12.562
  633DOPC   D2B 6862  16.429  21.274  12.782
  633DOPC   C3B 6863  16.309  21.581  13.112
  633DOPC   C4B 6864  16.499  21.901  13.412
  634DOPC   NC3 6865   6.869  11.104   7.392
  634DOPC   PO4 6866   6.909  11.504   7.532
  634DOPC   GL1 6867   6.879  11.464   7.012
  634DOPC   GL2 6868   6.679  11.684   6.832
  634DOPC   C1A 6869   7.219  11.314   6.672
  634DOPC   D2A 6870   7.439  11.194   6.292
  634DOPC   C3A 6871   7.309  10.764   6.092
  634DOPC   C4A 6872   7.529  10.464   5.922
  634DOPC   C1B 6873   6.879  11.994   6.522
  634DOPC   D2B 6874   6.999  11.834   6.152
  634DOPC   C3B 6875   7.259  11.644   5.912
  634DOPC   C4B 6876   7.399  11.294   5.832
  635DOPC   NC3 6877  23.679  22.321   3.672
  635DOPC   PO4 6878  23.799  22.321   4.112
  635DOPC   GL1 6879  24.089  22.311   4.322
  635DOPC   GL2 6880  24.209  22.051   4.392
  635DOPC   C1A 6881  23.999  22.541   4.742
  635DOPC   D2A 6882  24.269  22.551   5.012
  635DOPC   C3A 6883  24.509  22.401   5.322
  635DOPC   C4A 6884  24.329  22.241   5.692
  635DOPC   C1B 6885  24.189  22.041   4.802
  635DOPC   D2B 6886  24.179  22.031   5.262
  635DOPC   C3B 6887  23.919  22.361   5.352
  635DOPC   C4B 6888  23.609  22.631   5.602
  636DOPC   NC3 6889  20.179  16.454   7.432
  636DOPC   PO4 6890  20.149  16.264   6.972
  636DOPC   GL1 6891  20.459  16.264   6.722
  636DOPC   GL2 6892  20.619  15.924   6.802
  636DOPC   C1A 6893  20.409  16.504   6.262
  636DOPC   D2A 6894  20.349  16.764   5.842
  636DOPC   C3A 6895  20.589  17.154   5.922
  636DOPC   C4A 6896  20.939  17.424   6.112
  636DOPC   C1B 6897  20.489  15.914   6.362
  636DOPC   D2B 6898  20.479  15.844   5.882
  636DOPC   C3B 6899  20.449  16.244   5.712
  636DOPC   C4B 6900  20.449  16.624   5.362
  637DOPC   NC3 6901   4.069  12.124   3.282
  637DOPC   PO4 6902   4.059  11.724   3.392
  637DOPC   GL1 6903   4.109  11.664   3.802
  637DOPC   GL2 6904   4.279  11.414   3.982
  637DOPC   C1A 6905   3.879  11.654   4.242
  637DOPC   D2A 6906   3.569  11.374   4.372
  637DOPC   C3A 6907   3.559  11.544   4.782
  637DOPC   C4A 6908   3.529  11.384   5.052
  637DOPC   C1B 6909   3.889  11.174   3.972
  637DOPC   D2B 6910   3.619  10.834   4.182
  637DOPC   C3B 6911   3.269  10.694   4.332
  637DOPC   C4B 6912   2.859  10.744   4.312
  638DOPC   NC3 6913   1.249  24.881   3.872
  638DOPC   PO4 6914   1.539  24.461   3.912
  638DOPC   GL1 6915   1.609  24.671   4.182
  638DOPC   GL2 6916   1.769  24.941   4.112
  638DOPC   C1A 6917   1.709  24.541   4.562
  638DOPC   D2A 6918   1.819  24.321   4.952
  638DOPC   C3A 6919   1.949  24.471   5.282
  638DOPC   C4A 6920   2.069  24.681   5.652
  638DOPC   C1B 6921   1.769  25.021   4.592
  638DOPC   D2B 6922   1.669  24.871   4.972
  638DOPC   C3B 6923   1.859  25.091   5.402
  638DOPC   C4B 6924   2.299  25.131   5.682
  639DOPC   NC3 6925   1.149   1.904   7.272
  639DOPC   PO4 6926   1.329   2.294   7.162
  639DOPC   GL1 6927   0.989   2.294   6.792
  639DOPC   GL2 6928   0.669   2.444   6.762
  639DOPC   C1A 6929   0.949   2.034   6.452
  639DOPC   D2A 6930   0.659   1.854   6.192
  639DOPC   C3A 6931   0.889   1.884   5.812
  639DOPC   C4A 6932   1.089   2.134   5.432
  639DOPC   C1B 6933   0.489   2.624   6.372
  639DOPC   D2B 6934   0.011   2.704   6.372
  639DOPC   C3B 6935  -0.109   2.454   6.102
  639DOPC   C4B 6936  -0.239   2.174   5.702
  640DOPC   NC3 6937  16.149   9.654   8.252
  640DOPC   PO4 6938  15.949   9.204   8.202
  640DOPC   GL1 6939  16.159   9.374   7.842
  640DOPC   GL2 6940  16.399   9.504   7.872
  640DOPC   C1A 6941  16.019   9.544   7.482
  640DOPC   D2A 6942  15.749   9.774   7.432
  640DOPC   C3A 6943  15.599   9.984   6.972
  640DOPC   C4A 6944  15.359  10.164   6.582
  640DOPC   C1B 6945  16.599   9.444   7.482
  640DOPC   D2B 6946  16.789   9.344   6.992
  640DOPC   C3B 6947  16.369   9.254   6.702
  640DOPC   C4B 6948  16.039   9.414   6.442
  641DOPC   NC3 6949   8.679  16.384   8.422
  641DOPC   PO4 6950   8.859  16.664   8.152
  641DOPC   GL1 6951   9.079  16.854   7.762
  641DOPC   GL2 6952   9.189  16.664   7.542
  641DOPC   C1A 6953   9.089  17.174   7.342
  641DOPC   D2A 6954   9.179  17.234   6.852
  641DOPC   C3A 6955   9.129  17.674   6.672
  641DOPC   C4A 6956   8.969  18.004   6.462
  641DOPC   C1B 6957   9.109  16.734   7.172
  641DOPC   D2B 6958   9.329  16.664   6.832
  641DOPC   C3B 6959   9.539  16.514   6.472
  641DOPC   C4B 6960   9.349  16.394   6.082
  642DOPC   NC3 6961  13.189  14.834   4.882
  642DOPC   PO4 6962  12.799  15.074   4.882
  642DOPC   GL1 6963  12.709  15.354   5.232
  642DOPC   GL2 6964  12.519  15.554   5.452
  642DOPC   C1A 6965  12.789  15.224   5.762
  642DOPC   D2A 6966  12.889  15.194   6.232
  642DOPC   C3A 6967  13.109  15.534   6.402
  642DOPC   C4A 6968  13.129  15.734   6.752
  642DOPC   C1B 6969  12.159  15.514   5.782
  642DOPC   D2B 6970  11.979  15.584   6.102
  642DOPC   C3B 6971  12.249  15.624   6.512
  642DOPC   C4B 6972  12.309  15.614   6.992
  643DOPC   NC3 6973  24.329  15.004   7.682
  643DOPC   PO4 6974  24.549  14.774   7.412
  643DOPC   GL1 6975  24.539  14.974   7.092
  643DOPC   GL2 6976  24.319  14.754   6.902
  643DOPC   C1A 6977  24.429  15.254   6.792
  643DOPC   D2A 6978  24.649  15.404   6.412
  643DOPC   C3A 6979  24.539  15.714   6.162
  643DOPC   C4A 6980  24.429  15.814   5.762
  643DOPC   C1B 6981  24.449  14.594   6.432
  643DOPC   D2B 6982  24.369  14.554   6.142
  643DOPC   C3B 6983  24.209  14.894   5.982
  643DOPC   C4B 6984  24.229  14.974   5.582
  644DOPC   NC3 6985   5.209   8.124   7.832
  644DOPC   PO4 6986   5.709   8.144   7.652
  644DOPC   GL1 6987   6.069   7.964   7.362
  644DOPC   GL2 6988   6.389   8.074   7.352
  644DOPC   C1A 6989   6.289   7.864   6.872
  644DOPC   D2A 6990   6.549   7.824   6.492
  644DOPC   C3A 6991   6.499   7.884   6.122
  644DOPC   C4A 6992   6.289   8.374   6.052
  644DOPC   C1B 6993   6.759   8.084   7.122
  644DOPC   D2B 6994   6.989   8.084   6.742
  644DOPC   C3B 6995   7.019   8.504   6.682
  644DOPC   C4B 6996   6.699   8.734   6.642
  645DOPC   NC3 6997   2.039   6.524   3.132
  645DOPC   PO4 6998   2.469   6.394   3.192
  645DOPC   GL1 6999   2.259   6.604   3.582
  645DOPC   GL2 7000   2.319   6.504   3.852
  645DOPC   C1A 7001   2.039   6.914   3.892
  645DOPC   D2A 7002   1.789   7.164   4.202
  645DOPC   C3A 7003   1.749   7.434   4.492
  645DOPC   C4A 7004   1.589   7.744   4.752
  645DOPC   C1B 7005   2.299   6.684   4.272
  645DOPC   D2B 7006   2.239   7.174   4.452
  645DOPC   C3B 7007   2.279   7.374   4.042
  645DOPC   C4B 7008   2.309   7.504   3.692
  646DOPC   NC3 7009  22.439  18.084   7.762
  646DOPC   PO4 7010  22.539  17.914   7.262
  646DOPC   GL1 7011  22.879  17.964   6.932
  646DOPC   GL2 7012  23.079  18.204   6.872
  646DOPC   C1A 7013  22.839  17.964   6.522
  646DOPC   D2A 7014  22.909  18.134   6.162
  646DOPC   C3A 7015  23.169  18.524   6.202
  646DOPC   C4A 7016  23.029  18.774   6.562
  646DOPC   C1B 7017  23.329  18.084   6.452
  646DOPC   D2B 7018  23.599  18.044   6.092
  646DOPC   C3B 7019  23.829  17.694   5.982
  646DOPC   C4B 7020  24.139  17.604   5.862
  647DOPC   NC3 7021  24.219  21.164   3.992
  647DOPC   PO4 7022  24.419  21.631   3.892
  647DOPC   GL1 7023  24.339  21.531   4.332
  647DOPC   GL2 7024  24.649  21.681   4.392
  647DOPC   C1A 7025  24.239  21.551   4.742
  647DOPC   D2A 7026  24.209  21.531   5.282
  647DOPC   C3A 7027  24.569  21.671   5.572
  647DOPC   C4A 7028  24.949  21.581   5.762
  647DOPC   C1B 7029  24.639  21.254   4.702
  647DOPC   D2B 7030  24.529  21.064   5.222
  647DOPC   C3B 7031  24.349  20.734   5.252
  647DOPC   C4B 7032  24.369  20.344   5.402
  648DOPC   NC3 7033  10.279  24.531   4.142
  648DOPC   PO4 7034   9.929  24.801   4.112
  648DOPC   GL1 7035  10.019  25.011   4.412
  648DOPC   GL2 7036  10.379  25.101   4.432
  648DOPC   C1A 7037   9.989  24.971   4.882
  648DOPC   D2A 7038   9.689  25.131   5.212
  648DOPC   C3A 7039   9.829  25.241   5.622
  648DOPC   C4A 7040   9.789  25.591   5.872
  648DOPC   C1B 7041  10.579  24.741   4.692
  648DOPC   D2B 7042  10.309  24.521   5.002
  648DOPC   C3B 7043  10.189  24.701   5.342
  648DOPC   C4B 7044   9.769  24.741   5.532
  649DOPC   NC3 7045   0.149   2.164   3.812
  649DOPC   PO4 7046   0.079   2.644   3.752
  649DOPC   GL1 7047   0.249   2.964   4.062
  649DOPC   GL2 7048   0.559   3.054   3.912
  649DOPC   C1A 7049   0.469   3.374   4.332
  649DOPC   D2A 7050   0.809   3.304   4.582
  649DOPC   C3A 7051   0.899   3.484   4.972
  649DOPC   C4A 7052   0.719   3.664   5.382
  649DOPC   C1B 7053   0.669   2.884   4.262
  649DOPC   D2B 7054   0.689   2.874   4.662
  649DOPC   C3B 7055   0.839   3.004   5.052
  649DOPC   C4B 7056   0.849   2.754   5.442
  650DOPC   NC3 7057  17.039  19.924   7.692
  650DOPC   PO4 7058  16.559  20.044   7.672
  650DOPC   GL1 7059  16.719  19.944   7.302
  650DOPC   GL2 7060  16.629  20.334   7.182
  650DOPC   C1A 7061  16.759  19.954   6.822
  650DOPC   D2A 7062  16.779  19.904   6.412
  650DOPC   C3A 7063  16.519  19.694   6.152
  650DOPC   C4A 7064  16.209  19.544   6.162
  650DOPC   C1B 7065  16.279  20.164   6.882
  650DOPC   D2B 7066  15.919  20.194   6.562
  650DOPC   C3B 7067  15.979  20.444   6.182
  650DOPC   C4B 7068  16.269  20.724   6.002
  651DOPC   NC3 7069   1.319  11.244   3.702
  651DOPC   PO4 7070   1.569  11.604   3.732
  651DOPC   GL1 7071   1.299  11.494   4.112
  651DOPC   GL2 7072   1.239  11.854   4.182
  651DOPC   C1A 7073   1.199  11.254   4.352
  651DOPC   D2A 7074   1.119  10.904   4.532
  651DOPC   C3A 7075   0.809  10.874   4.832
  651DOPC   C4A 7076   0.589  11.084   5.142
  651DOPC   C1B 7077   0.969  11.704   4.352
  651DOPC   D2B 7078   0.789  11.434   4.582
  651DOPC   C3B 7079   1.029  11.264   4.802
  651DOPC   C4B 7080   1.359  10.874   5.022
  652DOPC   NC3 7081  17.049  24.631   7.912
  652DOPC   PO4 7082  16.629  24.911   7.932
  652DOPC   GL1 7083  16.699  24.721   7.592
  652DOPC   GL2 7084  16.569  24.341   7.622
  652DOPC   C1A 7085  16.779  24.811   7.162
  652DOPC   D2A 7086  16.599  25.051   6.882
  652DOPC   C3A 7087  16.269  25.151   7.012
  652DOPC   C4A 7088  15.949  24.991   7.232
  652DOPC   C1B 7089  16.279  24.601   7.292
  652DOPC   D2B 7090  16.179  24.681   6.862
  652DOPC   C3B 7091  16.459  24.741   6.482
  652DOPC   C4B 7092  16.599  24.631   6.012
  653DOPC   NC3 7093   5.479  25.311   7.692
  653DOPC   PO4 7094   5.289  25.051   7.842
  653DOPC   GL1 7095   5.349  24.861   7.422
  653DOPC   GL2 7096   5.649  24.681   7.352
  653DOPC   C1A 7097   5.189  24.821   7.072
  653DOPC   D2A 7098   5.329  24.631   6.742
  653DOPC   C3A 7099   5.219  24.931   6.532
  653DOPC   C4A 7100   4.899  25.321   6.352
  653DOPC   C1B 7101   5.829  24.561   6.882
  653DOPC   D2B 7102   5.989  24.431   6.432
  653DOPC   C3B 7103   5.979  24.711   5.972
  653DOPC   C4B 7104   5.739  25.001   5.752
  654DOPC   NC3 7105   7.759   4.184   8.242
  654DOPC   PO4 7106   7.669   3.954   7.752
  654DOPC   GL1 7107   8.019   3.814   7.532
  654DOPC   GL2 7108   8.139   3.544   7.642
  654DOPC   C1A 7109   8.079   3.564   7.102
  654DOPC   D2A 7110   8.359   3.444   6.722
  654DOPC   C3A 7111   8.709   3.274   6.932
  654DOPC   C4A 7112   8.759   2.904   6.972
  654DOPC   C1B 7113   8.499   3.604   7.312
  654DOPC   D2B 7114   8.449   3.924   7.002
  654DOPC   C3B 7115   8.519   3.854   6.522
  654DOPC   C4B 7116   8.399   3.744   6.132
  655DOPC   NC3 7117  20.539   5.264   7.982
  655DOPC   PO4 7118  20.179   5.624   7.942
  655DOPC   GL1 7119  20.009   5.614   7.492
  655DOPC   GL2 7120  19.749   5.404   7.522
  655DOPC   C1A 7121  19.799   5.714   7.082
  655DOPC   D2A 7122  19.629   5.774   6.672
  655DOPC   C3A 7123  19.949   6.064   6.532
  655DOPC   C4A 7124  19.929   6.444   6.552
  655DOPC   C1B 7125  19.489   5.304   7.232
  655DOPC   D2B 7126  19.119   5.234   7.272
  655DOPC   C3B 7127  19.059   4.954   6.922
  655DOPC   C4B 7128  19.309   4.844   6.572
  656DOPC   NC3 7129   9.899  12.754   8.492
  656DOPC   PO4 7130   9.519  12.544   8.632
  656DOPC   GL1 7131   9.449  12.674   8.172
  656DOPC   GL2 7132   9.699  12.864   8.022
  656DOPC   C1A 7133   9.399  12.704   7.632
  656DOPC   D2A 7134   9.599  12.734   7.052
  656DOPC   C3A 7135  10.019  12.854   6.912
  656DOPC   C4A 7136  10.489  12.884   6.872
  656DOPC   C1B 7137  10.049  13.034   7.812
  656DOPC   D2B 7138  10.289  12.924   7.362
  656DOPC   C3B 7139  10.279  12.524   7.162
  656DOPC   C4B 7140   9.909  12.294   7.062
  657DOPC   NC3 7141   2.699   4.614   7.142
  657DOPC   PO4 7142   2.749   4.154   7.292
  657DOPC   GL1 7143   2.789   4.134   6.952
  657DOPC   GL2 7144   3.069   4.384   6.842
  657DOPC   C1A 7145   2.749   4.214   6.522
  657DOPC   D2A 7146   2.899   4.224   6.092
  657DOPC   C3A 7147   2.839   4.144   5.662
  657DOPC   C4A 7148   3.019   3.914   5.302
  657DOPC   C1B 7149   3.189   4.574   6.452
  657DOPC   D2B 7150   3.249   4.584   5.952
  657DOPC   C3B 7151   2.989   4.654   5.572
  657DOPC   C4B 7152   2.949   4.914   5.162
  658DOPC   NC3 7153  12.489  20.854   8.202
  658DOPC   PO4 7154  12.099  21.264   8.372
  658DOPC   GL1 7155  12.089  21.134   7.942
  658DOPC   GL2 7156  12.469  21.194   7.772
  658DOPC   C1A 7157  12.029  21.044   7.532
  658DOPC   D2A 7158  12.049  20.934   7.092
  658DOPC   C3A 7159  12.379  20.584   6.872
  658DOPC   C4A 7160  12.579  20.234   6.652
  658DOPC   C1B 7161  12.449  21.401   7.342
  658DOPC   D2B 7162  12.389  21.641   7.002
  658DOPC   C3B 7163  12.349  21.601   6.632
  658DOPC   C4B 7164  12.329  21.401   6.292
  659DOPC   NC3 7165  25.529  19.164   7.242
  659DOPC   PO4 7166  25.409  19.624   7.192
  659DOPC   GL1 7167  25.139  19.804   6.832
  659DOPC   GL2 7168  25.029  20.064   6.812
  659DOPC   C1A 7169  24.839  19.664   6.522
  659DOPC   D2A 7170  24.499  19.714   6.242
  659DOPC   C3A 7171  24.119  19.864   6.312
  659DOPC   C4A 7172  23.699  19.964   6.582
  659DOPC   C1B 7173  24.959  20.124   6.372
  659DOPC   D2B 7174  25.149  19.934   6.002
  659DOPC   C3B 7175  25.449  19.614   5.832
  659DOPC   C4B 7176  25.746  19.264   6.012
  660DOPC   NC3 7177   7.399  18.534   7.712
  660DOPC   PO4 7178   7.159  18.824   7.962
  660DOPC   GL1 7179   7.339  19.054   7.682
  660DOPC   GL2 7180   7.539  19.274   7.692
  660DOPC   C1A 7181   7.269  19.174   7.262
  660DOPC   D2A 7182   7.159  19.124   6.902
  660DOPC   C3A 7183   7.279  19.504   6.732
  660DOPC   C4A 7184   7.629  19.764   6.762
  660DOPC   C1B 7185   7.759  19.114   7.362
  660DOPC   D2B 7186   8.079  18.944   6.942
  660DOPC   C3B 7187   8.099  19.114   6.522
  660DOPC   C4B 7188   8.089  19.454   6.242
  661DOPC   NC3 7189  16.009  13.004   4.842
  661DOPC   PO4 7190  16.279  12.794   4.582
  661DOPC   GL1 7191  16.699  12.854   4.902
  661DOPC   GL2 7192  17.039  12.934   4.932
  661DOPC   C1A 7193  16.899  12.754   5.362
  661DOPC   D2A 7194  16.849  12.914   5.762
  661DOPC   C3A 7195  16.429  12.644   5.952
  661DOPC   C4A 7196  16.289  12.264   6.042
  661DOPC   C1B 7197  17.249  13.224   5.172
  661DOPC   D2B 7198  17.159  13.294   5.632
  661DOPC   C3B 7199  17.129  13.294   6.112
  661DOPC   C4B 7200  17.069  13.204   6.562
  662DOPC   NC3 7201  14.899  22.681   4.152
  662DOPC   PO4 7202  14.749  23.121   4.432
  662DOPC   GL1 7203  14.649  22.891   4.812
  662DOPC   GL2 7204  14.999  22.831   4.902
  662DOPC   C1A 7205  14.549  22.931   5.232
  662DOPC   D2A 7206  14.149  22.971   5.452
  662DOPC   C3A 7207  13.749  22.861   5.752
  662DOPC   C4A 7208  13.569  22.631   6.002
  662DOPC   C1B 7209  15.219  22.671   5.232
  662DOPC   D2B 7210  15.279  22.261   5.402
  662DOPC   C3B 7211  15.269  22.261   5.832
  662DOPC   C4B 7212  14.919  22.431   6.092
  663DOPC   NC3 7213  25.429  13.694   8.242
  663DOPC   PO4 7214  25.549  13.804   7.792
  663DOPC   GL1 7215  25.666  13.664   7.342
  663DOPC   GL2 7216  25.509  13.264   7.372
  663DOPC   C1A 7217  25.589  13.954   6.932
  663DOPC   D2A 7218  25.726  14.314   6.742
  663DOPC   C3A 7219  25.726  14.334   6.282
  663DOPC   C4A 7220  25.469  14.344   5.992
  663DOPC   C1B 7221  25.279  13.534   7.072
  663DOPC   D2B 7222  25.159  13.634   6.642
  663DOPC   C3B 7223  25.459  13.524   6.152
  663DOPC   C4B 7224  25.856  13.564   5.792
  664DOPC   NC3 7225  21.699   7.824   3.382
  664DOPC   PO4 7226  22.049   7.664   3.192
  664DOPC   GL1 7227  22.129   7.784   3.602
  664DOPC   GL2 7228  21.979   7.934   3.722
  664DOPC   C1A 7229  22.039   7.494   4.052
  664DOPC   D2A 7230  21.979   7.224   4.362
  664DOPC   C3A 7231  21.579   7.054   4.462
  664DOPC   C4A 7232  21.119   7.014   4.702
  664DOPC   C1B 7233  22.009   8.024   4.202
  664DOPC   D2B 7234  22.129   8.264   4.642
  664DOPC   C3B 7235  22.489   8.184   4.752
  664DOPC   C4B 7236  22.659   8.204   5.112
  665DOPC   NC3 7237  10.659  12.804   4.962
  665DOPC   PO4 7238  10.879  13.194   5.142
  665DOPC   GL1 7239  10.759  13.024   5.572
  665DOPC   GL2 7240  10.589  12.684   5.512
  665DOPC   C1A 7241  10.829  12.994   5.972
  665DOPC   D2A 7242  10.549  12.994   6.372
  665DOPC   C3A 7243  10.139  13.054   6.462
  665DOPC   C4A 7244   9.769  13.234   6.602
  665DOPC   C1B 7245  10.729  12.474   5.972
  665DOPC   D2B 7246  10.469  12.484   6.392
  665DOPC   C3B 7247  10.189  12.314   6.672
  665DOPC   C4B 7248   9.749  12.134   6.502
  666DOPC   NC3 7249  14.229  21.144   8.582
  666DOPC   PO4 7250  13.829  21.024   8.282
  666DOPC   GL1 7251  13.569  21.094   7.912
  666DOPC   GL2 7252  13.849  20.894   7.702
  666DOPC   C1A 7253  13.489  21.284   7.552
  666DOPC   D2A 7254  13.319  21.294   7.182
  666DOPC   C3A 7255  13.359  21.064   6.802
  666DOPC   C4A 7256  13.459  21.274   6.482
  666DOPC   C1B 7257  13.829  20.954   7.272
  666DOPC   D2B 7258  13.449  20.764   7.162
  666DOPC   C3B 7259  13.139  20.514   7.282
  666DOPC   C4B 7260  12.649  20.434   7.252
  667DOPC   NC3 7261  15.809  23.431   7.452
  667DOPC   PO4 7262  16.169  23.111   7.472
  667DOPC   GL1 7263  16.169  23.191   6.982
  667DOPC   GL2 7264  16.259  23.471   7.072
  667DOPC   C1A 7265  16.319  23.121   6.692
  667DOPC   D2A 7266  16.249  23.391   6.332
  667DOPC   C3A 7267  16.639  23.511   5.982
  667DOPC   C4A 7268  17.129  23.741   5.952
  667DOPC   C1B 7269  16.519  23.621   6.772
  667DOPC   D2B 7270  16.529  23.911   6.412
  667DOPC   C3B 7271  16.319  23.921   6.072
  667DOPC   C4B 7272  16.159  23.561   5.832
  668DOPC   NC3 7273  21.879   7.194   7.332
  668DOPC   PO4 7274  21.819   7.544   7.092
  668DOPC   GL1 7275  21.909   7.314   6.752
  668DOPC   GL2 7276  22.129   7.394   6.522
  668DOPC   C1A 7277  21.929   6.964   6.412
  668DOPC   D2A 7278  21.679   6.804   6.122
  668DOPC   C3A 7279  21.369   6.494   6.242
  668DOPC   C4A 7280  21.359   6.114   6.012
  668DOPC   C1B 7281  22.309   7.184   6.252
  668DOPC   D2B 7282  22.159   6.724   6.042
  668DOPC   C3B 7283  22.159   6.714   5.622
  668DOPC   C4B 7284  21.969   6.604   5.212
  669DOPC   NC3 7285  12.269   3.584   4.252
  669DOPC   PO4 7286  12.079   3.174   4.112
  669DOPC   GL1 7287  11.949   3.194   4.522
  669DOPC   GL2 7288  12.219   3.354   4.692
  669DOPC   C1A 7289  11.949   2.954   4.892
  669DOPC   D2A 7290  12.109   3.024   5.382
  669DOPC   C3A 7291  12.199   2.744   5.602
  669DOPC   C4A 7292  12.059   2.394   5.902
  669DOPC   C1B 7293  11.929   3.504   5.002
  669DOPC   D2B 7294  11.729   3.434   5.462
  669DOPC   C3B 7295  11.739   3.044   5.772
  669DOPC   C4B 7296  11.819   2.774   6.042
  670DOPC   NC3 7297   7.079  20.104   8.082
  670DOPC   PO4 7298   6.599  20.184   8.092
  670DOPC   GL1 7299   6.759  20.214   7.712
  670DOPC   GL2 7300   6.629  20.444   7.432
  670DOPC   C1A 7301   6.689  19.954   7.362
  670DOPC   D2A 7302   6.679  19.964   6.932
  670DOPC   C3A 7303   6.969  19.924   6.612
  670DOPC   C4A 7304   7.269  19.954   6.492
  670DOPC   C1B 7305   6.619  20.544   6.972
  670DOPC   D2B 7306   6.569  20.694   6.492
  670DOPC   C3B 7307   6.889  20.834   6.222
  670DOPC   C4B 7308   7.249  20.814   6.032
  671DOPC   NC3 7309  19.589   7.164   7.382
  671DOPC   PO4 7310  19.579   6.954   7.692
  671DOPC   GL1 7311  19.179   6.894   7.522
  671DOPC   GL2 7312  18.969   6.654   7.382
  671DOPC   C1A 7313  18.949   7.034   7.082
  671DOPC   D2A 7314  18.769   7.074   6.702
  671DOPC   C3A 7315  18.719   6.794   6.372
  671DOPC   C4A 7316  18.499   6.454   6.012
  671DOPC   C1B 7317  18.539   6.624   7.392
  671DOPC   D2B 7318  18.239   6.434   7.252
  671DOPC   C3B 7319  18.159   6.254   6.852
  671DOPC   C4B 7320  17.859   6.284   6.632
  672DOPC   NC3 7321   3.769  19.134   8.212
  672DOPC   PO4 7322   3.729  19.604   7.912
  672DOPC   GL1 7323   4.039  19.404   7.762
  672DOPC   GL2 7324   3.989  19.094   7.652
  672DOPC   C1A 7325   4.519  19.484   7.482
  672DOPC   D2A 7326   4.999  19.704   7.402
  672DOPC   C3A 7327   5.349  19.394   7.142
  672DOPC   C4A 7328   5.409  19.264   6.782
  672DOPC   C1B 7329   4.029  19.194   7.302
  672DOPC   D2B 7330   3.879  19.244   6.852
  672DOPC   C3B 7331   4.069  19.164   6.452
  672DOPC   C4B 7332   4.329  18.994   6.182
  673DOPC   NC3 7333   7.859  20.164   8.722
  673DOPC   PO4 7334   7.619  20.084   8.322
  673DOPC   GL1 7335   7.809  19.904   7.942
  673DOPC   GL2 7336   7.579  19.904   7.662
  673DOPC   C1A 7337   7.899  19.554   7.712
  673DOPC   D2A 7338   8.159  19.424   7.372
  673DOPC   C3A 7339   8.029  19.594   7.082
  673DOPC   C4A 7340   8.089  19.694   6.642
  673DOPC   C1B 7341   7.559  19.594   7.252
  673DOPC   D2B 7342   7.679  19.244   6.832
  673DOPC   C3B 7343   7.639  19.384   6.402
  673DOPC   C4B 7344   7.519  19.724   6.172
  674DOPC   NC3 7345  25.656   3.204   3.602
  674DOPC   PO4 7346  25.479   3.674   3.412
  674DOPC   GL1 7347  25.319   3.844   3.702
  674DOPC   GL2 7348  25.189   4.044   3.712
  674DOPC   C1A 7349  25.159   3.594   4.072
  674DOPC   D2A 7350  24.879   3.544   4.382
  674DOPC   C3A 7351  25.069   3.664   4.672
  674DOPC   C4A 7352  25.059   3.954   5.052
  674DOPC   C1B 7353  25.119   4.084   4.092
  674DOPC   D2B 7354  24.989   4.144   4.492
  674DOPC   C3B 7355  25.069   4.464   4.692
  674DOPC   C4B 7356  24.889   4.864   4.722
  675DOPC   NC3 7357  12.219  25.341   8.282
  675DOPC   PO4 7358  12.569  25.371   8.442
  675DOPC   GL1 7359  12.559  25.321   7.902
  675DOPC   GL2 7360  12.809  25.511   7.832
  675DOPC   C1A 7361  12.309  25.271   7.472
  675DOPC   D2A 7362  12.089  25.481   7.102
  675DOPC   C3A 7363  12.169  25.521   6.622
  675DOPC   C4A 7364  11.979  25.661   6.282
  675DOPC   C1B 7365  12.679  25.671   7.492
  675DOPC   D2B 7366  12.589  25.581   7.132
  675DOPC   C3B 7367  12.439  25.161   6.982
  675DOPC   C4B 7368  12.369  24.791   6.762
  676DOPC   NC3 7369  18.369  14.114   8.052
  676DOPC   PO4 7370  18.759  13.834   7.962
  676DOPC   GL1 7371  18.789  13.644   7.572
  676DOPC   GL2 7372  18.559  13.284   7.622
  676DOPC   C1A 7373  18.709  13.844   7.142
  676DOPC   D2A 7374  18.479  14.014   6.702
  676DOPC   C3A 7375  18.839  14.214   6.422
  676DOPC   C4A 7376  19.149  13.934   6.172
  676DOPC   C1B 7377  18.339  13.504   7.362
  676DOPC   D2B 7378  18.199  13.734   7.002
  676DOPC   C3B 7379  17.759  13.924   6.712
  676DOPC   C4B 7380  17.499  14.254   6.702
  677DOPC   NC3 7381  16.089  13.014   8.252
  677DOPC   PO4 7382  15.999  12.654   8.042
  677DOPC   GL1 7383  16.139  12.544   7.702
  677DOPC   GL2 7384  16.179  12.284   7.682
  677DOPC   C1A 7385  15.909  12.654   7.232
  677DOPC   D2A 7386  15.499  12.604   7.092
  677DOPC   C3A 7387  15.489  12.614   6.652
  677DOPC   C4A 7388  15.669  12.864   6.262
  677DOPC   C1B 7389  16.019  12.134   7.302
  677DOPC   D2B 7390  16.029  12.284   6.892
  677DOPC   C3B 7391  16.259  12.064   6.552
  677DOPC   C4B 7392  16.229  11.604   6.312
  678DOPC   NC3 7393  23.729  22.711   7.882
  678DOPC   PO4 7394  23.309  22.771   7.782
  678DOPC   GL1 7395  23.659  22.921   7.402
  678DOPC   GL2 7396  23.489  23.071   7.072
  678DOPC   C1A 7397  23.889  22.821   7.092
  678DOPC   D2A 7398  24.239  22.571   6.942
  678DOPC   C3A 7399  24.239  22.211   6.672
  678DOPC   C4A 7400  24.619  22.131   6.552
  678DOPC   C1B 7401  23.299  23.131   6.762
  678DOPC   D2B 7402  23.369  23.061   6.232
  678DOPC   C3B 7403  22.959  23.031   5.972
  678DOPC   C4B 7404  22.879  22.981   5.532
  679DOPC   NC3 7405  23.259  22.291   7.822
  679DOPC   PO4 7406  23.699  22.171   7.812
  679DOPC   GL1 7407  23.639  22.381   7.452
  679DOPC   GL2 7408  23.339  22.371   7.332
  679DOPC   C1A 7409  23.869  22.311   7.072
  679DOPC   D2A 7410  23.829  22.501   6.692
  679DOPC   C3A 7411  23.819  23.041   6.612
  679DOPC   C4A 7412  23.599  23.491   6.702
  679DOPC   C1B 7413  23.419  22.601   6.992
  679DOPC   D2B 7414  23.429  22.591   6.472
  679DOPC   C3B 7415  23.249  22.431   6.002
  679DOPC   C4B 7416  23.189  22.441   5.492
  680DOPC   NC3 7417  21.449  10.224   7.592
  680DOPC   PO4 7418  21.129  10.354   7.182
  680DOPC   GL1 7419  21.189  10.284   6.772
  680DOPC   GL2 7420  20.959  10.494   6.702
  680DOPC   C1A 7421  21.379  10.124   6.412
  680DOPC   D2A 7422  21.729  10.014   6.262
  680DOPC   C3A 7423  21.979   9.674   6.052
  680DOPC   C4A 7424  22.159   9.504   5.672
  680DOPC   C1B 7425  20.759  10.604   6.342
  680DOPC   D2B 7426  20.399  10.524   6.162
  680DOPC   C3B 7427  20.079  10.824   5.932
  680DOPC   C4B 7428  19.649  10.934   5.962
  681DOPC   NC3 7429  21.659  14.554   7.432
  681DOPC   PO4 7430  21.399  14.884   7.522
  681DOPC   GL1 7431  21.229  14.474   7.192
  681DOPC   GL2 7432  20.919  14.604   7.092
  681DOPC   C1A 7433  21.169  14.144   6.802
  681DOPC   D2A 7434  21.069  13.914   6.492
  681DOPC   C3A 7435  21.299  13.944   6.052
  681DOPC   C4A 7436  21.559  14.114   5.732
  681DOPC   C1B 7437  20.739  14.454   6.782
  681DOPC   D2B 7438  20.539  14.394   6.522
  681DOPC   C3B 7439  20.769  14.104   6.162
  681DOPC   C4B 7440  20.759  14.054   5.712
  682DOPC   NC3 7441  17.819  23.991   8.052
  682DOPC   PO4 7442  17.419  24.281   7.942
  682DOPC   GL1 7443  17.399  24.391   7.482
  682DOPC   GL2 7444  17.089  24.521   7.372
  682DOPC   C1A 7445  17.559  24.681   7.152
  682DOPC   D2A 7446  17.299  24.961   6.952
  682DOPC   C3A 7447  16.969  24.701   6.722
  682DOPC   C4A 7448  16.699  24.401   6.852
  682DOPC   C1B 7449  17.189  24.301   6.982
  682DOPC   D2B 7450  17.159  24.251   6.562
  682DOPC   C3B 7451  16.879  24.311   6.292
  682DOPC   C4B 7452  16.759  24.151   5.942
  683DOPC   NC3 7453   3.789  18.574   4.162
  683DOPC   PO4 7454   4.179  18.504   3.952
  683DOPC   GL1 7455   4.289  18.484   4.372
  683DOPC   GL2 7456   4.489  18.234   4.442
  683DOPC   C1A 7457   4.309  18.484   4.832
  683DOPC   D2A 7458   4.199  18.874   5.122
  683DOPC   C3A 7459   3.729  18.824   5.262
  683DOPC   C4A 7460   3.399  19.094   5.602
  683DOPC   C1B 7461   4.669  18.154   4.932
  683DOPC   D2B 7462   4.489  18.374   5.362
  683DOPC   C3B 7463   4.339  17.974   5.662
  683DOPC   C4B 7464   4.289  17.834   6.122
  684DOPC   NC3 7465  10.339  15.654   8.832
  684DOPC   PO4 7466  10.469  16.024   8.682
  684DOPC   GL1 7467  10.659  16.044   8.282
  684DOPC   GL2 7468  10.529  16.304   8.042
  684DOPC   C1A 7469  10.809  15.904   7.822
  684DOPC   D2A 7470  10.709  15.654   7.422
  684DOPC   C3A 7471  10.769  15.374   7.202
  684DOPC   C4A 7472  10.489  15.184   6.912
  684DOPC   C1B 7473  10.469  16.244   7.602
  684DOPC   D2B 7474  10.369  16.534   7.312
  684DOPC   C3B 7475  10.449  16.504   6.892
  684DOPC   C4B 7476  10.629  16.214   6.582
  685DOPC   NC3 7477   0.409  10.244   7.082
  685DOPC   PO4 7478   0.519   9.784   6.882
  685DOPC   GL1 7479   0.379   9.964   6.602
  685DOPC   GL2 7480   0.499   9.794   6.382
  685DOPC   C1A 7481   0.289  10.384   6.452
  685DOPC   D2A 7482   0.279  10.884   6.342
  685DOPC   C3A 7483   0.209  11.084   6.002
  685DOPC   C4A 7484   0.459  10.964   5.632
  685DOPC   C1B 7485   0.239  10.004   6.012
  685DOPC   D2B 7486   0.139  10.124   5.692
  685DOPC   C3B 7487  -0.199   9.994   5.322
  685DOPC   C4B 7488   0.011   9.724   4.932
  686DOPC   NC3 7489   3.449  17.174   7.592
  686DOPC   PO4 7490   3.499  16.804   7.462
  686DOPC   GL1 7491   3.839  16.784   7.042
  686DOPC   GL2 7492   4.119  16.884   7.022
  686DOPC   C1A 7493   3.879  16.994   6.592
  686DOPC   D2A 7494   4.189  17.324   6.422
  686DOPC   C3A 7495   4.069  17.524   6.892
  686DOPC   C4A 7496   3.909  17.874   7.142
  686DOPC   C1B 7497   4.429  16.664   6.782
  686DOPC   D2B 7498   4.739  16.474   6.412
  686DOPC   C3B 7499   5.139  16.694   6.242
  686DOPC   C4B 7500   5.499  16.754   5.972
  687DOPC   NC3 7501  12.149   7.274   4.082
  687DOPC   PO4 7502  12.089   7.764   4.172
  687DOPC   GL1 7503  11.979   7.954   4.642
  687DOPC   GL2 7504  11.759   7.864   4.872
  687DOPC   C1A 7505  12.179   7.894   5.122
  687DOPC   D2A 7506  12.449   7.574   5.342
  687DOPC   C3A 7507  12.359   7.164   5.522
  687DOPC   C4A 7508  12.569   6.834   5.832
  687DOPC   C1B 7509  11.689   7.704   5.252
  687DOPC   D2B 7510  11.529   7.754   5.632
  687DOPC   C3B 7511  11.609   8.124   5.842
  687DOPC   C4B 7512  11.669   8.524   5.962
  688DOPC   NC3 7513  18.159   8.424   7.692
  688DOPC   PO4 7514  18.089   7.994   7.942
  688DOPC   GL1 7515  18.159   7.894   7.482
  688DOPC   GL2 7516  18.409   8.024   7.392
  688DOPC   C1A 7517  18.329   7.734   7.042
  688DOPC   D2A 7518  18.319   7.824   6.592
  688DOPC   C3A 7519  18.369   7.494   6.322
  688DOPC   C4A 7520  18.289   7.144   6.002
  688DOPC   C1B 7521  18.249   8.234   7.062
  688DOPC   D2B 7522  18.369   8.344   6.682
  688DOPC   C3B 7523  18.349   8.204   6.272
  688DOPC   C4B 7524  18.609   8.164   5.862
  689DOPC   NC3 7525   7.369   1.794   7.902
  689DOPC   PO4 7526   7.179   2.124   7.792
  689DOPC   GL1 7527   7.239   1.904   7.442
  689DOPC   GL2 7528   7.019   1.674   7.372
  689DOPC   C1A 7529   7.259   2.064   7.042
  689DOPC   D2A 7530   7.289   2.014   6.592
  689DOPC   C3A 7531   6.849   1.964   6.542
  689DOPC   C4A 7532   6.689   2.364   6.362
  689DOPC   C1B 7533   6.999   1.654   6.952
  689DOPC   D2B 7534   7.139   1.534   6.542
  689DOPC   C3B 7535   6.879   1.474   6.232
  689DOPC   C4B 7536   6.949   1.504   5.832
  690DOPC   NC3 7537  18.009  23.181   7.622
  690DOPC   PO4 7538  18.019  23.581   7.502
  690DOPC   GL1 7539  18.099  23.491   7.082
  690DOPC   GL2 7540  17.759  23.581   7.022
  690DOPC   C1A 7541  18.199  23.671   6.692
  690DOPC   D2A 7542  17.919  23.721   6.312
  690DOPC   C3A 7543  18.019  23.491   6.002
  690DOPC   C4A 7544  17.939  23.631   5.582
  690DOPC   C1B 7545  17.679  23.361   6.622
  690DOPC   D2B 7546  17.609  23.261   6.222
  690DOPC   C3B 7547  17.529  23.581   5.972
  690DOPC   C4B 7548  17.759  24.011   5.862
  691DOPC   NC3 7549  18.439  21.531   3.332
  691DOPC   PO4 7550  18.099  21.194   3.472
  691DOPC   GL1 7551  18.109  21.044   3.902
  691DOPC   GL2 7552  17.999  21.324   4.182
  691DOPC   C1A 7553  18.409  20.944   4.112
  691DOPC   D2A 7554  18.599  20.634   4.462
  691DOPC   C3A 7555  18.169  20.354   4.622
  691DOPC   C4A 7556  17.849  20.274   4.722
  691DOPC   C1B 7557  17.569  21.114   4.232
  691DOPC   D2B 7558  17.299  20.844   3.922
  691DOPC   C3B 7559  17.089  20.664   4.272
  691DOPC   C4B 7560  16.729  20.574   4.282
  692DOPC   NC3 7561   9.849  24.911   7.722
  692DOPC   PO4 7562   9.569  25.171   8.042
  692DOPC   GL1 7563   9.429  25.201   7.632
  692DOPC   GL2 7564   9.129  25.151   7.582
  692DOPC   C1A 7565   9.209  24.951   7.162
  692DOPC   D2A 7566   9.249  24.761   6.742
  692DOPC   C3A 7567   9.169  24.691   6.312
  692DOPC   C4A 7568   8.979  24.711   5.942
  692DOPC   C1B 7569   8.969  25.411   7.232
  692DOPC   D2B 7570   8.879  25.801   7.002
  692DOPC   C3B 7571   8.789  25.581   6.662
  692DOPC   C4B 7572   8.559  25.331   6.312
  693DOPC   NC3 7573  17.719  13.504   8.632
  693DOPC   PO4 7574  17.899  13.344   8.272
  693DOPC   GL1 7575  17.739  13.264   7.882
  693DOPC   GL2 7576  17.929  13.314   7.662
  693DOPC   C1A 7577  17.489  13.074   7.472
  693DOPC   D2A 7578  17.299  13.174   7.112
  693DOPC   C3A 7579  17.559  13.094   6.822
  693DOPC   C4A 7580  17.589  13.184   6.342
  693DOPC   C1B 7581  17.859  13.324   7.172
  693DOPC   D2B 7582  17.989  13.434   6.692
  693DOPC   C3B 7583  18.099  13.134   6.412
  693DOPC   C4B 7584  18.099  13.074   5.942
  694DOPC   NC3 7585   3.349   2.454   7.012
  694DOPC   PO4 7586   3.149   2.024   7.032
  694DOPC   GL1 7587   3.649   1.964   7.002
  694DOPC   GL2 7588   3.799   2.194   7.082
  694DOPC   C1A 7589   3.849   1.804   6.592
  694DOPC   D2A 7590   3.879   1.414   6.382
  694DOPC   C3A 7591   3.669   1.384   5.922
  694DOPC   C4A 7592   3.729   1.664   5.572
  694DOPC   C1B 7593   4.129   2.284   6.812
  694DOPC   D2B 7594   4.289   2.114   6.482
  694DOPC   C3B 7595   4.009   2.044   6.212
  694DOPC   C4B 7596   3.679   1.844   6.092
  695DOPC   NC3 7597   3.579  12.874   3.752
  695DOPC   PO4 7598   3.369  13.174   3.682
  695DOPC   GL1 7599   3.219  13.224   4.052
  695DOPC   GL2 7600   2.929  13.384   4.122
  695DOPC   C1A 7601   3.259  13.034   4.482
  695DOPC   D2A 7602   3.069  12.684   4.752
  695DOPC   C3A 7603   2.939  12.294   4.622
  695DOPC   C4A 7604   2.789  11.934   4.752
  695DOPC   C1B 7605   2.889  13.404   4.552
  695DOPC   D2B 7606   2.839  13.114   4.952
  695DOPC   C3B 7607   2.779  13.364   5.322
  695DOPC   C4B 7608   2.579  13.734   5.482
  696DOPC   NC3 7609  14.699  24.651   4.272
  696DOPC   PO4 7610  14.929  25.021   4.072
  696DOPC   GL1 7611  14.999  25.241   4.452
  696DOPC   GL2 7612  14.709  25.161   4.552
  696DOPC   C1A 7613  15.059  25.601   4.822
  696DOPC   D2A 7614  15.159  25.791   5.132
  696DOPC   C3A 7615  15.049  25.791   5.492
  696DOPC   C4A 7616  14.929  25.991   5.872
  696DOPC   C1B 7617  14.889  25.121   4.982
  696DOPC   D2B 7618  15.029  25.331   5.302
  696DOPC   C3B 7619  15.129  25.171   5.622
  696DOPC   C4B 7620  15.159  25.441   5.872
  697DOPC   NC3 7621  22.459  16.824   8.242
  697DOPC   PO4 7622  22.449  16.614   7.792
  697DOPC   GL1 7623  22.719  16.614   7.372
  697DOPC   GL2 7624  22.619  16.904   7.312
  697DOPC   C1A 7625  22.589  16.564   6.952
  697DOPC   D2A 7626  22.469  16.724   6.522
  697DOPC   C3A 7627  22.759  16.614   6.172
  697DOPC   C4A 7628  23.199  16.584   6.162
  697DOPC   C1B 7629  22.769  16.994   6.942
  697DOPC   D2B 7630  22.879  16.974   6.472
  697DOPC   C3B 7631  22.609  17.114   6.242
  697DOPC   C4B 7632  22.359  16.914   5.892
  698DOPC   NC3 7633  22.029  11.774   7.422
  698DOPC   PO4 7634  21.529  11.934   7.382
  698DOPC   GL1 7635  21.829  12.014   6.972
  698DOPC   GL2 7636  22.109  11.994   6.932
  698DOPC   C1A 7637  21.859  12.104   6.492
  698DOPC   D2A 7638  21.659  12.204   6.182
  698DOPC   C3A 7639  21.869  12.234   5.772
  698DOPC   C4A 7640  22.219  12.264   5.462
  698DOPC   C1B 7641  22.259  12.394   6.672
  698DOPC   D2B 7642  22.049  12.564   6.262
  698DOPC   C3B 7643  22.069  12.874   5.922
  698DOPC   C4B 7644  22.039  13.344   5.862
  699DOPC   NC3 7645  22.829   9.604   6.942
  699DOPC   PO4 7646  23.069  10.014   7.032
  699DOPC   GL1 7647  22.839  10.094   6.692
  699DOPC   GL2 7648  22.849  10.384   6.742
  699DOPC   C1A 7649  22.859  10.054   6.272
  699DOPC   D2A 7650  22.929   9.994   5.792
  699DOPC   C3A 7651  23.059  10.164   5.412
  699DOPC   C4A 7652  23.239   9.964   5.052
  699DOPC   C1B 7653  22.979  10.614   6.372
  699DOPC   D2B 7654  23.059  10.774   5.922
  699DOPC   C3B 7655  23.209  10.624   5.632
  699DOPC   C4B 7656  23.559  10.674   5.342
  700DOPC   NC3 7657  23.589   4.384   3.552
  700DOPC   PO4 7658  23.379   4.774   3.372
  700DOPC   GL1 7659  23.249   4.614   3.762
  700DOPC   GL2 7660  22.909   4.504   3.782
  700DOPC   C1A 7661  23.279   4.494   4.182
  700DOPC   D2A 7662  23.419   4.324   4.472
  700DOPC   C3A 7663  23.259   3.884   4.562
  700DOPC   C4A 7664  23.249   3.684   4.902
  700DOPC   C1B 7665  22.809   4.174   4.052
  700DOPC   D2B 7666  22.819   3.704   4.212
  700DOPC   C3B 7667  22.739   3.624   4.582
  700DOPC   C4B 7668  22.639   3.664   4.982
  701DOPC   NC3 7669   9.469  24.861   4.382
  701DOPC   PO4 7670   9.349  24.501   4.552
  701DOPC   GL1 7671   9.289  24.771   4.842
  701DOPC   GL2 7672   9.049  25.011   4.702
  701DOPC   C1A 7673   9.119  25.131   5.192
  701DOPC   D2A 7674   8.909  25.451   4.882
  701DOPC   C3A 7675   9.309  25.781   4.892
  701DOPC   C4A 7676   9.319  26.171   4.942
  701DOPC   C1B 7677   8.649  24.951   4.932
  701DOPC   D2B 7678   8.189  24.911   4.992
  701DOPC   C3B 7679   7.949  24.711   5.362
  701DOPC   C4B 7680   8.179  24.751   5.662
  702DOPC   NC3 7681  12.779  13.474   5.022
  702DOPC   PO4 7682  12.489  13.734   5.282
  702DOPC   GL1 7683  12.489  13.784   5.772
  702DOPC   GL2 7684  12.609  14.074   5.872
  702DOPC   C1A 7685  12.389  13.684   6.202
  702DOPC   D2A 7686  12.349  13.684   6.602
  702DOPC   C3A 7687  12.599  14.094   6.672
  702DOPC   C4A 7688  12.839  14.514   6.722
  702DOPC   C1B 7689  12.489  14.174   6.212
  702DOPC   D2B 7690  12.329  14.464   6.602
  702DOPC   C3B 7691  11.929  14.584   6.682
  702DOPC   C4B 7692  11.519  14.654   6.592
  703DOPC   NC3 7693  15.699  12.324   8.312
  703DOPC   PO4 7694  15.749  12.744   8.502
  703DOPC   GL1 7695  15.469  12.794   8.172
  703DOPC   GL2 7696  15.279  12.934   8.442
  703DOPC   C1A 7697  15.409  12.714   7.732
  703DOPC   D2A 7698  15.129  12.454   7.412
  703DOPC   C3A 7699  15.099  12.454   6.942
  703DOPC   C4A 7700  14.989  12.414   6.572
  703DOPC   C1B 7701  15.049  13.044   8.072
  703DOPC   D2B 7702  14.709  13.324   7.792
  703DOPC   C3B 7703  14.609  13.424   7.352
  703DOPC   C4B 7704  14.639  13.724   6.982
  704DOPC   NC3 7705  14.579  17.164   4.132
  704DOPC   PO4 7706  14.739  17.394   4.462
  704DOPC   GL1 7707  14.839  17.474   4.872
  704DOPC   GL2 7708  14.989  17.224   4.862
  704DOPC   C1A 7709  14.729  17.804   5.272
  704DOPC   D2A 7710  14.879  18.074   5.632
  704DOPC   C3A 7711  14.759  17.894   6.002
  704DOPC   C4A 7712  14.369  17.724   6.132
  704DOPC   C1B 7713  15.039  17.334   5.282
  704DOPC   D2B 7714  14.859  17.544   5.692
  704DOPC   C3B 7715  14.429  17.824   5.632
  704DOPC   C4B 7716  14.339  18.144   5.402
  705DOPC   NC3 7717  10.639  21.054   8.322
  705DOPC   PO4 7718  11.099  21.114   8.142
  705DOPC   GL1 7719  11.259  20.894   7.812
  705DOPC   GL2 7720  11.609  20.934   7.852
  705DOPC   C1A 7721  11.209  20.964   7.372
  705DOPC   D2A 7722  11.159  21.114   7.002
  705DOPC   C3A 7723  10.939  20.994   6.572
  705DOPC   C4A 7724  11.099  20.834   6.232
  705DOPC   C1B 7725  11.699  20.694   7.482
  705DOPC   D2B 7726  11.739  20.204   7.372
  705DOPC   C3B 7727  11.829  19.914   7.682
  705DOPC   C4B 7728  12.029  19.474   7.702
  706DOPC   NC3 7729   0.031  23.811   7.622
  706DOPC   PO4 7730  -0.089  24.241   7.562
  706DOPC   GL1 7731  -0.119  24.231   7.212
  706DOPC   GL2 7732  -0.129  24.581   7.072
  706DOPC   C1A 7733  -0.129  24.221   6.722
  706DOPC   D2A 7734   0.059  24.211   6.322
  706DOPC   C3A 7735   0.021  24.561   6.072
  706DOPC   C4A 7736   0.089  24.821   5.732
  706DOPC   C1B 7737  -0.019  24.661   6.562
  706DOPC   D2B 7738   0.109  25.071   6.382
  706DOPC   C3B 7739   0.031  25.201   6.052
  706DOPC   C4B 7740   0.149  25.331   5.702
  707DOPC   NC3 7741   8.389  19.174   8.782
  707DOPC   PO4 7742   8.089  18.924   8.392
  707DOPC   GL1 7743   8.199  18.834   7.962
  707DOPC   GL2 7744   8.139  19.124   7.822
  707DOPC   C1A 7745   8.259  18.894   7.402
  707DOPC   D2A 7746   8.559  18.894   7.062
  707DOPC   C3A 7747   8.429  19.284   6.862
  707DOPC   C4A 7748   8.529  19.524   6.492
  707DOPC   C1B 7749   8.589  19.114   7.762
  707DOPC   D2B 7750   8.909  19.244   7.522
  707DOPC   C3B 7751   8.959  19.244   7.042
  707DOPC   C4B 7752   9.269  19.354   6.782
  708DOPC   NC3 7753  18.449   4.434   4.072
  708DOPC   PO4 7754  18.889   4.614   4.092
  708DOPC   GL1 7755  18.699   4.544   4.602
  708DOPC   GL2 7756  18.339   4.794   4.742
  708DOPC   C1A 7757  18.949   4.444   4.872
  708DOPC   D2A 7758  19.019   4.584   5.382
  708DOPC   C3A 7759  18.879   5.024   5.512
  708DOPC   C4A 7760  18.929   5.204   5.902
  708DOPC   C1B 7761  18.549   4.734   5.142
  708DOPC   D2B 7762  18.559   4.454   5.552
  708DOPC   C3B 7763  18.229   4.454   5.732
  708DOPC   C4B 7764  17.999   4.384   6.022
  709DOPC   NC3 7765  20.509  19.344   3.742
  709DOPC   PO4 7766  20.599  18.904   3.582
  709DOPC   GL1 7767  20.449  18.934   4.062
  709DOPC   GL2 7768  20.299  18.794   4.142
  709DOPC   C1A 7769  20.709  19.014   4.462
  709DOPC   D2A 7770  20.559  19.054   4.842
  709DOPC   C3A 7771  20.399  18.674   4.832
  709DOPC   C4A 7772  19.919  18.444   4.742
  709DOPC   C1B 7773  20.149  18.884   4.492
  709DOPC   D2B 7774  20.039  18.904   5.022
  709DOPC   C3B 7775  20.249  18.924   5.292
  709DOPC   C4B 7776  20.369  19.334   5.462
  710DOPC   NC3 7777   1.239  20.874   7.902
  710DOPC   PO4 7778   1.339  21.204   8.032
  710DOPC   GL1 7779   1.529  21.361   7.702
  710DOPC   GL2 7780   1.389  21.094   7.452
  710DOPC   C1A 7781   1.729  21.441   7.272
  710DOPC   D2A 7782   2.109  21.661   7.122
  710DOPC   C3A 7783   2.299  21.304   6.952
  710DOPC   C4A 7784   2.409  20.914   6.862
  710DOPC   C1B 7785   1.539  20.994   7.122
  710DOPC   D2B 7786   1.409  20.984   6.752
  710DOPC   C3B 7787   1.079  20.714   6.552
  710DOPC   C4B 7788   1.289  20.244   6.432
  711DOPC   NC3 7789  24.919  25.231   3.362
  711DOPC   PO4 7790  25.009  24.911   3.572
  711DOPC   GL1 7791  24.999  24.801   3.942
  711DOPC   GL2 7792  24.769  24.931   4.202
  711DOPC   C1A 7793  25.079  24.491   4.302
  711DOPC   D2A 7794  25.229  24.031   4.432
  711DOPC   C3A 7795  25.059  23.901   4.942
  711DOPC   C4A 7796  25.189  23.891   5.422
  711DOPC   C1B 7797  25.039  24.901   4.602
  711DOPC   D2B 7798  24.839  24.971   5.022
  711DOPC   C3B 7799  24.909  25.251   5.382
  711DOPC   C4B 7800  24.689  25.401   5.732
  712DOPC   NC3 7801   4.149  14.364   7.332
  712DOPC   PO4 7802   4.559  14.314   7.462
  712DOPC   GL1 7803   4.539  14.114   7.042
  712DOPC   GL2 7804   4.349  14.294   6.742
  712DOPC   C1A 7805   4.669  13.764   6.722
  712DOPC   D2A 7806   4.849  13.744   6.382
  712DOPC   C3A 7807   5.149  14.094   6.322
  712DOPC   C4A 7808   5.249  14.584   6.302
  712DOPC   C1B 7809   4.339  14.114   6.372
  712DOPC   D2B 7810   4.399  14.264   6.002
  712DOPC   C3B 7811   4.639  14.644   5.972
  712DOPC   C4B 7812   4.689  15.024   5.782
  713DOPC   NC3 7813   9.999   7.054   7.682
  713DOPC   PO4 7814  10.359   7.174   8.062
  713DOPC   GL1 7815  10.369   7.374   7.672
  713DOPC   GL2 7816  10.299   7.294   7.262
  713DOPC   C1A 7817  10.719   7.404   7.462
  713DOPC   D2A 7818  10.979   7.484   7.142
  713DOPC   C3A 7819  10.899   7.594   6.752
  713DOPC   C4A 7820  10.629   7.654   6.412
  713DOPC   C1B 7821  10.109   6.904   6.992
  713DOPC   D2B 7822  10.319   6.694   6.682
  713DOPC   C3B 7823  10.169   6.514   6.302
  713DOPC   C4B 7824  10.379   6.134   6.072
  714DOPC   NC3 7825   0.439   3.074   7.332
  714DOPC   PO4 7826   0.489   3.464   7.242
  714DOPC   GL1 7827   0.319   3.494   6.902
  714DOPC   GL2 7828   0.619   3.614   6.792
  714DOPC   C1A 7829   0.199   3.564   6.482
  714DOPC   D2A 7830  -0.179   3.324   6.282
  714DOPC   C3A 7831  -0.519   3.294   5.932
  714DOPC   C4A 7832  -0.799   2.924   5.742
  714DOPC   C1B 7833   0.669   3.454   6.332
  714DOPC   D2B 7834   0.619   3.444   5.922
  714DOPC   C3B 7835   0.549   3.154   5.582
  714DOPC   C4B 7836   0.399   2.914   5.342
  715DOPC   NC3 7837  15.559   1.914   4.522
  715DOPC   PO4 7838  15.899   2.094   4.402
  715DOPC   GL1 7839  15.939   1.914   4.912
  715DOPC   GL2 7840  15.769   1.684   4.972
  715DOPC   C1A 7841  16.149   1.994   5.302
  715DOPC   D2A 7842  16.039   1.894   5.792
  715DOPC   C3A 7843  16.209   1.764   6.112
  715DOPC   C4A 7844  16.539   1.834   6.282
  715DOPC   C1B 7845  15.449   1.444   5.192
  715DOPC   D2B 7846  15.129   1.104   5.482
  715DOPC   C3B 7847  15.369   0.774   5.752
  715DOPC   C4B 7848  15.679   0.844   6.012
  716DOPC   NC3 7849  11.589  14.924   9.212
  716DOPC   PO4 7850  11.509  15.274   8.912
  716DOPC   GL1 7851  11.609  14.924   8.712
  716DOPC   GL2 7852  11.329  14.714   8.742
  716DOPC   C1A 7853  11.739  14.624   8.412
  716DOPC   D2A 7854  11.529  14.354   8.092
  716DOPC   C3A 7855  11.629  14.014   7.832
  716DOPC   C4A 7856  11.659  13.664   7.622
  716DOPC   C1B 7857  11.249  14.704   8.352
  716DOPC   D2B 7858  11.369  14.814   7.922
  716DOPC   C3B 7859  11.209  14.544   7.602
  716DOPC   C4B 7860  11.069  14.294   7.262
  717DOPC   NC3 7861  11.329  15.644   8.632
  717DOPC   PO4 7862  11.489  16.094   8.522
  717DOPC   GL1 7863  11.539  15.944   8.212
  717DOPC   GL2 7864  11.399  15.644   8.132
  717DOPC   C1A 7865  11.859  16.164   7.932
  717DOPC   D2A 7866  11.889  16.264   7.562
  717DOPC   C3A 7867  12.139  16.244   7.162
  717DOPC   C4A 7868  12.659  16.384   7.312
  717DOPC   C1B 7869  11.219  15.274   8.022
  717DOPC   D2B 7870  11.559  15.254   7.692
  717DOPC   C3B 7871  11.519  14.904   7.402
  717DOPC   C4B 7872  11.549  14.544   7.162
  718DOPC   NC3 7873  23.329  23.261   7.682
  718DOPC   PO4 7874  22.819  23.081   7.782
  718DOPC   GL1 7875  23.059  23.021   7.372
  718DOPC   GL2 7876  22.999  23.261   7.182
  718DOPC   C1A 7877  22.909  22.781   6.912
  718DOPC   D2A 7878  22.949  22.691   6.422
  718DOPC   C3A 7879  22.869  22.241   6.252
  718DOPC   C4A 7880  22.699  21.871   6.222
  718DOPC   C1B 7881  22.609  23.221   6.942
  718DOPC   D2B 7882  22.389  22.951   6.752
  718DOPC   C3B 7883  22.519  22.571   6.622
  718DOPC   C4B 7884  22.389  22.301   6.232
  719DOPC   NC3 7885   6.079  14.784   3.232
  719DOPC   PO4 7886   5.819  14.574   3.412
  719DOPC   GL1 7887   5.799  14.424   3.832
  719DOPC   GL2 7888   5.939  14.164   3.942
  719DOPC   C1A 7889   5.679  14.364   4.342
  719DOPC   D2A 7890   5.479  14.204   4.582
  719DOPC   C3A 7891   5.579  14.404   4.942
  719DOPC   C4A 7892   5.879  14.574   5.192
  719DOPC   C1B 7893   5.749  13.864   4.222
  719DOPC   D2B 7894   5.679  13.614   4.502
  719DOPC   C3B 7895   5.549  13.174   4.392
  719DOPC   C4B 7896   5.169  12.884   4.352
  720DOPC   NC3 7897  16.739  11.654   4.172
  720DOPC   PO4 7898  16.459  11.414   4.362
  720DOPC   GL1 7899  16.499  11.314   4.762
  720DOPC   GL2 7900  16.199  11.314   4.842
  720DOPC   C1A 7901  16.609  11.164   5.162
  720DOPC   D2A 7902  16.599  11.314   5.552
  720DOPC   C3A 7903  16.709  11.104   5.872
  720DOPC   C4A 7904  16.979  10.974   6.322
  720DOPC   C1B 7905  16.179  11.464   5.272
  720DOPC   D2B 7906  16.209  11.554   5.732
  720DOPC   C3B 7907  16.429  11.794   5.852
  720DOPC   C4B 7908  16.639  11.814   6.222
  721DOPC   NC3 7909   0.819   7.684   2.832
  721DOPC   PO4 7910   0.639   7.514   3.112
  721DOPC   GL1 7911   0.669   7.604   3.542
  721DOPC   GL2 7912   0.689   7.964   3.392
  721DOPC   C1A 7913   0.869   7.704   3.942
  721DOPC   D2A 7914   1.039   8.064   4.152
  721DOPC   C3A 7915   1.049   8.084   4.612
  721DOPC   C4A 7916   0.649   8.044   4.812
  721DOPC   C1B 7917   0.599   8.134   3.822
  721DOPC   D2B 7918   0.579   8.174   4.302
  721DOPC   C3B 7919   0.669   7.744   4.412
  721DOPC   C4B 7920   0.699   7.324   4.182
  722DOPC   NC3 7921   4.859  11.134   7.352
  722DOPC   PO4 7922   5.309  11.104   7.152
  722DOPC   GL1 7923   5.459  11.064   6.722
  722DOPC   GL2 7924   5.189  11.184   6.482
  722DOPC   C1A 7925   5.709  11.064   6.372
  722DOPC   D2A 7926   5.949  11.204   6.002
  722DOPC   C3A 7927   5.719  10.894   5.732
  722DOPC   C4A 7928   5.299  10.814   5.582
  722DOPC   C1B 7929   5.339  11.204   6.042
  722DOPC   D2B 7930   5.599  11.384   5.732
  722DOPC   C3B 7931   6.059  11.274   5.512
  722DOPC   C4B 7932   6.379  11.264   5.302
  723DOPC   NC3 7933   1.969  23.021   7.472
  723DOPC   PO4 7934   2.309  23.401   7.462
  723DOPC   GL1 7935   2.519  23.581   7.252
  723DOPC   GL2 7936   2.299  23.651   6.962
  723DOPC   C1A 7937   2.909  23.431   6.852
  723DOPC   D2A 7938   3.079  23.071   6.642
  723DOPC   C3A 7939   2.819  22.771   6.442
  723DOPC   C4A 7940   2.799  22.281   6.282
  723DOPC   C1B 7941   2.169  23.651   6.522
  723DOPC   D2B 7942   1.779  23.891   6.272
  723DOPC   C3B 7943   1.439  23.601   6.112
  723DOPC   C4B 7944   1.439  23.441   5.742
  724DOPC   NC3 7945   6.869   4.764   7.862
  724DOPC   PO4 7946   6.929   4.374   7.672
  724DOPC   GL1 7947   6.969   4.364   7.202
  724DOPC   GL2 7948   6.849   4.104   7.052
  724DOPC   C1A 7949   6.739   4.514   6.862
  724DOPC   D2A 7950   6.639   4.324   6.522
  724DOPC   C3A 7951   6.849   4.424   6.152
  724DOPC   C4A 7952   6.919   4.654   5.712
  724DOPC   C1B 7953   7.229   3.964   6.982
  724DOPC   D2B 7954   7.679   3.974   7.222
  724DOPC   C3B 7955   8.039   4.114   7.022
  724DOPC   C4B 7956   8.229   4.244   6.622
  725DOPC   NC3 7957  18.379  12.444   3.632
  725DOPC   PO4 7958  18.219  12.134   3.892
  725DOPC   GL1 7959  18.139  12.104   4.342
  725DOPC   GL2 7960  17.999  12.424   4.492
  725DOPC   C1A 7961  18.199  12.024   4.772
  725DOPC   D2A 7962  18.349  12.204   5.072
  725DOPC   C3A 7963  18.259  11.894   5.432
  725DOPC   C4A 7964  18.339  11.624   5.752
  725DOPC   C1B 7965  18.029  12.564   4.952
  725DOPC   D2B 7966  17.959  12.414   5.412
  725DOPC   C3B 7967  17.719  12.364   5.742
  725DOPC   C4B 7968  17.609  12.274   6.152
  726DOPC   NC3 7969  14.249  24.761   7.732
  726DOPC   PO4 7970  14.589  24.581   7.972
  726DOPC   GL1 7971  14.749  24.871   7.652
  726DOPC   GL2 7972  14.979  24.881   7.622
  726DOPC   C1A 7973  14.569  25.171   7.312
  726DOPC   D2A 7974  14.569  25.061   6.822
  726DOPC   C3A 7975  13.969  25.171   6.772
  726DOPC   C4A 7976  13.639  25.331   6.522
  726DOPC   C1B 7977  15.079  25.041   7.232
  726DOPC   D2B 7978  15.469  25.121   7.042
  726DOPC   C3B 7979  15.449  24.941   6.572
  726DOPC   C4B 7980  15.579  24.651   6.162
  727DOPC   NC3 7981   2.559  14.924   7.222
  727DOPC   PO4 7982   2.939  14.644   7.172
  727DOPC   GL1 7983   2.659  14.394   7.052
  727DOPC   GL2 7984   2.739  14.054   7.032
  727DOPC   C1A 7985   2.329  14.244   6.872
  727DOPC   D2A 7986   1.989  14.174   6.522
  727DOPC   C3A 7987   2.149  13.954   6.192
  727DOPC   C4A 7988   2.499  13.954   5.912
  727DOPC   C1B 7989   2.649  13.964   6.582
  727DOPC   D2B 7990   2.969  14.264   6.262
  727DOPC   C3B 7991   2.819  14.484   5.882
  727DOPC   C4B 7992   2.759  14.754   5.582
  728DOPC   NC3 7993  17.499   6.194   8.022
  728DOPC   PO4 7994  17.999   6.154   7.972
  728DOPC   GL1 7995  17.749   6.304   7.582
  728DOPC   GL2 7996  17.429   6.194   7.472
  728DOPC   C1A 7997  17.779   6.154   7.192
  728DOPC   D2A 7998  17.869   5.804   6.952
  728DOPC   C3A 7999  17.989   5.814   6.512
  728DOPC   C4A 8000  18.169   6.154   6.212
  728DOPC   C1B 8001  17.259   6.274   7.062
  728DOPC   D2B 8002  17.139   6.274   6.652
  728DOPC   C3B 8003  17.459   6.364   6.352
  728DOPC   C4B 8004  17.809   6.524   6.162
  729DOPC   NC3 8005  22.559   2.294   3.262
  729DOPC   PO4 8006  22.189   2.134   3.432
  729DOPC   GL1 8007  22.209   2.114   3.842
  729DOPC   GL2 8008  22.579   2.164   3.822
  729DOPC   C1A 8009  21.959   2.164   4.192
  729DOPC   D2A 8010  21.579   2.284   4.382
  729DOPC   C3A 8011  21.599   2.514   4.692
  729DOPC   C4A 8012  21.439   2.454   5.162
  729DOPC   C1B 8013  22.469   2.164   4.272
  729DOPC   D2B 8014  22.299   1.934   4.612
  729DOPC   C3B 8015  22.529   1.884   5.062
  729DOPC   C4B 8016  22.919   1.614   4.982
  730DOPC   NC3 8017  21.059  20.404   7.032
  730DOPC   PO4 8018  21.239  20.774   7.132
  730DOPC   GL1 8019  21.189  20.884   6.802
  730DOPC   GL2 8020  21.199  20.564   6.552
  730DOPC   C1A 8021  21.359  21.264   6.582
  730DOPC   D2A 8022  21.419  21.621   6.292
  730DOPC   C3A 8023  21.549  21.621   5.842
  730DOPC   C4A 8024  21.219  21.391   5.662
  730DOPC   C1B 8025  21.299  20.554   6.162
  730DOPC   D2B 8026  21.569  20.444   5.982
  730DOPC   C3B 8027  21.679  20.774   5.672
  730DOPC   C4B 8028  22.059  20.914   5.472
  731DOPC   NC3 8029   6.669   5.024   3.622
  731DOPC   PO4 8030   6.769   5.214   4.012
  731DOPC   GL1 8031   6.699   5.274   4.432
  731DOPC   GL2 8032   6.879   5.574   4.422
  731DOPC   C1A 8033   6.659   4.944   4.672
  731DOPC   D2A 8034   6.609   4.534   4.802
  731DOPC   C3A 8035   6.429   4.494   5.122
  731DOPC   C4A 8036   6.029   4.434   5.312
  731DOPC   C1B 8037   6.589   5.814   4.652
  731DOPC   D2B 8038   6.209   5.724   4.932
  731DOPC   C3B 8039   6.039   5.974   5.292
  731DOPC   C4B 8040   6.239   6.184   5.572
  732DOPC   NC3 8041   1.269  13.804   3.732
  732DOPC   PO4 8042   1.559  14.244   3.622
  732DOPC   GL1 8043   1.389  14.244   4.032
  732DOPC   GL2 8044   1.539  14.204   4.252
  732DOPC   C1A 8045   1.139  14.444   4.402
  732DOPC   D2A 8046   1.389  14.524   4.842
  732DOPC   C3A 8047   1.239  14.904   5.042
  732DOPC   C4A 8048   0.839  15.184   4.922
  732DOPC   C1B 8049   1.399  14.064   4.622
  732DOPC   D2B 8050   1.249  14.024   5.042
  732DOPC   C3B 8051   0.869  13.674   5.042
  732DOPC   C4B 8052   0.609  13.354   5.262
  733DOPC   NC3 8053   7.439  16.274   7.802
  733DOPC   PO4 8054   7.899  16.184   7.842
  733DOPC   GL1 8055   7.829  16.124   7.452
  733DOPC   GL2 8056   8.049  15.854   7.502
  733DOPC   C1A 8057   7.689  16.234   7.052
  733DOPC   D2A 8058   7.469  15.894   6.742
  733DOPC   C3A 8059   7.529  15.524   6.762
  733DOPC   C4A 8060   7.619  15.134   6.772
  733DOPC   C1B 8061   8.389  15.724   7.302
  733DOPC   D2B 8062   8.619  15.904   6.922
  733DOPC   C3B 8063   9.029  15.684   6.742
  733DOPC   C4B 8064   9.459  15.584   6.662
  734DOPC   NC3 8065   5.829  16.194   4.232
  734DOPC   PO4 8066   6.199  15.954   4.292
  734DOPC   GL1 8067   6.059  15.924   4.682
  734DOPC   GL2 8068   6.309  15.744   4.872
  734DOPC   C1A 8069   5.629  16.064   4.802
  734DOPC   D2A 8070   5.419  15.894   5.302
  734DOPC   C3A 8071   5.139  15.794   5.682
  734DOPC   C4A 8072   4.909  15.524   5.832
  734DOPC   C1B 8073   6.249  15.454   5.092
  734DOPC   D2B 8074   5.939  15.384   5.372
  734DOPC   C3B 8075   6.239  15.394   5.672
  734DOPC   C4B 8076   6.399  14.994   5.852
  735DOPC   NC3 8077  14.899  21.104   7.962
  735DOPC   PO4 8078  14.699  21.381   7.942
  735DOPC   GL1 8079  14.779  21.591   7.532
  735DOPC   GL2 8080  15.059  21.861   7.592
  735DOPC   C1A 8081  14.299  21.551   7.272
  735DOPC   D2A 8082  13.869  21.431   7.112
  735DOPC   C3A 8083  13.749  21.781   7.272
  735DOPC   C4A 8084  13.659  21.981   7.672
  735DOPC   C1B 8085  15.139  21.721   7.132
  735DOPC   D2B 8086  15.079  21.571   6.702
  735DOPC   C3B 8087  14.979  21.214   6.402
  735DOPC   C4B 8088  14.669  21.054   6.092
  736DOPC   NC3 8089  22.379   8.714   6.792
  736DOPC   PO4 8090  22.119   9.044   6.702
  736DOPC   GL1 8091  22.149   8.804   6.312
  736DOPC   GL2 8092  21.799   8.754   6.372
  736DOPC   C1A 8093  22.079   8.694   5.802
  736DOPC   D2A 8094  21.789   8.544   5.332
  736DOPC   C3A 8095  21.689   8.214   4.942
  736DOPC   C4A 8096  21.689   7.844   4.942
  736DOPC   C1B 8097  21.799   9.094   5.972
  736DOPC   D2B 8098  21.569   9.454   5.832
  736DOPC   C3B 8099  21.729   9.474   5.422
  736DOPC   C4B 8100  21.719   9.264   5.072
  737DOPC   NC3 8101  14.689   1.774   4.032
  737DOPC   PO4 8102  14.449   1.874   4.432
  737DOPC   GL1 8103  14.679   1.974   4.882
  737DOPC   GL2 8104  14.809   1.754   4.982
  737DOPC   C1A 8105  14.679   2.234   5.312
  737DOPC   D2A 8106  14.769   2.044   5.752
  737DOPC   C3A 8107  14.529   1.834   6.002
  737DOPC   C4A 8108  14.149   1.524   6.112
  737DOPC   C1B 8109  14.829   1.504   5.362
  737DOPC   D2B 8110  14.849   1.414   5.802
  737DOPC   C3B 8111  15.089   1.724   6.032
  737DOPC   C4B 8112  15.249   2.134   6.232
  738DOPC   NC3 8113   1.809  12.344   7.672
  738DOPC   PO4 8114   1.359  12.404   7.462
  738DOPC   GL1 8115   1.209  12.294   7.152
  738DOPC   GL2 8116   1.229  11.954   7.102
  738DOPC   C1A 8117   0.929  12.534   6.962
  738DOPC   D2A 8118   0.639  12.554   6.782
  738DOPC   C3A 8119   0.599  12.724   6.402
  738DOPC   C4A 8120   0.749  12.564   6.032
  738DOPC   C1B 8121   1.279  11.764   6.622
  738DOPC   D2B 8122   0.919  11.734   6.302
  738DOPC   C3B 8123   0.779  11.614   5.892
  738DOPC   C4B 8124   0.779  11.414   5.522
  739DOPC   NC3 8125  14.909  12.834   4.942
  739DOPC   PO4 8126  14.899  13.314   5.092
  739DOPC   GL1 8127  15.299  13.334   5.322
  739DOPC   GL2 8128  15.619  13.364   5.212
  739DOPC   C1A 8129  15.529  13.644   5.582
  739DOPC   D2A 8130  15.849  13.924   5.792
  739DOPC   C3A 8131  16.149  13.834   5.802
  739DOPC   C4A 8132  16.579  13.754   5.852
  739DOPC   C1B 8133  15.609  13.024   5.532
  739DOPC   D2B 8134  15.489  13.054   5.842
  739DOPC   C3B 8135  15.659  13.444   6.122
  739DOPC   C4B 8136  15.559  13.864   6.172
  740DOPC   NC3 8137  23.979  13.344   7.462
  740DOPC   PO4 8138  23.759  13.734   7.442
  740DOPC   GL1 8139  23.549  13.694   7.002
  740DOPC   GL2 8140  23.279  13.774   7.112
  740DOPC   C1A 8141  23.299  13.474   6.672
  740DOPC   D2A 8142  23.449  13.164   6.392
  740DOPC   C3A 8143  23.439  13.364   6.022
  740DOPC   C4A 8144  23.649  13.624   5.682
  740DOPC   C1B 8145  23.329  13.994   6.672
  740DOPC   D2B 8146  22.979  14.164   6.322
  740DOPC   C3B 8147  22.739  13.964   6.012
  740DOPC   C4B 8148  22.589  14.044   5.702
  741DOPC   NC3 8149   1.979  11.354   3.872
  741DOPC   PO4 8150   2.289  11.044   3.832
  741DOPC   GL1 8151   2.389  11.184   4.172
  741DOPC   GL2 8152   2.669  11.394   4.162
  741DOPC   C1A 8153   2.479  10.984   4.532
  741DOPC   D2A 8154   2.719  10.904   4.862
  741DOPC   C3A 8155   2.719  11.214   5.082
  741DOPC   C4A 8156   2.659  11.654   5.192
  741DOPC   C1B 8157   2.749  11.404   4.582
  741DOPC   D2B 8158   3.039  11.504   4.842
  741DOPC   C3B 8159   3.149  11.264   5.282
  741DOPC   C4B 8160   3.029  10.934   5.622
  742DOPC   NC3 8161   2.189   0.844   7.292
  742DOPC   PO4 8162   2.549   1.034   7.142
  742DOPC   GL1 8163   2.339   1.044   6.742
  742DOPC   GL2 8164   2.599   1.094   6.492
  742DOPC   C1A 8165   2.049   1.064   6.452
  742DOPC   D2A 8166   1.909   0.684   6.192
  742DOPC   C3A 8167   1.759   0.954   5.852
  742DOPC   C4A 8168   1.649   1.364   5.622
  742DOPC   C1B 8169   2.389   1.504   6.622
  742DOPC   D2B 8170   2.149   1.734   6.352
  742DOPC   C3B 8171   1.739   1.404   6.172
  742DOPC   C4B 8172   1.499   1.104   6.262
  743DOPC   NC3 8173  12.939  24.901   8.342
  743DOPC   PO4 8174  13.019  24.511   8.092
  743DOPC   GL1 8175  13.039  24.671   7.732
  743DOPC   GL2 8176  13.339  24.541   7.522
  743DOPC   C1A 8177  12.969  24.681   7.252
  743DOPC   D2A 8178  12.859  24.741   6.852
  743DOPC   C3A 8179  12.709  24.451   6.562
  743DOPC   C4A 8180  12.589  24.121   6.282
  743DOPC   C1B 8181  13.329  25.021   7.462
  743DOPC   D2B 8182  13.159  25.511   7.372
  743DOPC   C3B 8183  13.329  25.871   7.182
  743DOPC   C4B 8184  13.609  26.171   7.172
  744DOPC   NC3 8185   6.469  25.051   7.642
  744DOPC   PO4 8186   6.249  25.471   7.482
  744DOPC   GL1 8187   6.249  25.271   7.192
  744DOPC   GL2 8188   6.579  25.151   7.152
  744DOPC   C1A 8189   6.109  25.291   6.822
  744DOPC   D2A 8190   5.959  25.221   6.312
  744DOPC   C3A 8191   5.969  25.501   6.022
  744DOPC   C4A 8192   6.029  25.931   5.832
  744DOPC   C1B 8193   6.629  25.391   6.822
  744DOPC   D2B 8194   6.419  25.451   6.432
  744DOPC   C3B 8195   5.999  25.731   6.552
  744DOPC   C4B 8196   5.629  26.031   6.352
  745DOPC   NC3 8197   0.099  15.264   7.542
  745DOPC   PO4 8198   0.469  15.494   7.582
  745DOPC   GL1 8199   0.459  15.394   7.132
  745DOPC   GL2 8200   0.399  15.064   7.132
  745DOPC   C1A 8201   0.459  15.534   6.782
  745DOPC   D2A 8202   0.509  15.634   6.392
  745DOPC   C3A 8203   0.099  15.674   6.022
  745DOPC   C4A 8204  -0.179  15.674   5.642
  745DOPC   C1B 8205   0.309  14.754   6.712
  745DOPC   D2B 8206   0.559  14.544   6.362
  745DOPC   C3B 8207   0.589  14.784   5.872
  745DOPC   C4B 8208   0.849  14.744   5.452
  746DOPC   NC3 8209   2.839  25.331   7.662
  746DOPC   PO4 8210   2.879  25.001   7.232
  746DOPC   GL1 8211   3.069  24.981   6.872
  746DOPC   GL2 8212   3.279  25.141   6.962
  746DOPC   C1A 8213   3.269  24.951   6.462
  746DOPC   D2A 8214   3.349  24.801   6.042
  746DOPC   C3A 8215   3.399  25.161   5.702
  746DOPC   C4A 8216   3.509  25.091   5.312
  746DOPC   C1B 8217   3.689  24.921   6.832
  746DOPC   D2B 8218   3.829  24.951   6.402
  746DOPC   C3B 8219   4.169  24.721   6.152
  746DOPC   C4B 8220   4.249  24.381   5.992
  747DOPC   NC3 8221  16.709  15.224   8.382
  747DOPC   PO4 8222  16.249  15.084   8.352
  747DOPC   GL1 8223  16.329  14.834   7.972
  747DOPC   GL2 8224  16.149  15.064   7.832
  747DOPC   C1A 8225  16.359  14.644   7.532
  747DOPC   D2A 8226  16.269  14.554   7.162
  747DOPC   C3A 8227  16.429  14.894   6.912
  747DOPC   C4A 8228  16.559  14.794   6.382
  747DOPC   C1B 8229  15.989  15.034   7.432
  747DOPC   D2B 8230  15.819  14.904   7.082
  747DOPC   C3B 8231  15.429  14.964   7.032
  747DOPC   C4B 8232  15.179  15.244   6.762
  748DOPC   NC3 8233  23.989  17.374   7.842
  748DOPC   PO4 8234  24.149  17.244   7.392
  748DOPC   GL1 8235  23.809  17.314   7.192
  748DOPC   GL2 8236  23.679  17.604   7.052
  748DOPC   C1A 8237  23.659  17.234   6.722
  748DOPC   D2A 8238  23.709  17.324   6.212
  748DOPC   C3A 8239  23.959  17.134   5.812
  748DOPC   C4A 8240  24.459  17.144   5.632
  748DOPC   C1B 8241  23.299  17.684   6.822
  748DOPC   D2B 8242  23.299  17.604   6.342
  748DOPC   C3B 8243  23.189  17.184   6.192
  748DOPC   C4B 8244  22.989  16.964   5.952
  749DOPC   NC3 8245   0.889  16.564   7.492
  749DOPC   PO4 8246   0.979  16.814   7.262
  749DOPC   GL1 8247   0.829  16.704   6.862
  749DOPC   GL2 8248   0.799  16.404   6.662
  749DOPC   C1A 8249   0.959  16.904   6.472
  749DOPC   D2A 8250   0.959  17.024   6.052
  749DOPC   C3A 8251   1.169  16.854   5.702
  749DOPC   C4A 8252   1.269  16.934   5.262
  749DOPC   C1B 8253   0.909  16.084   6.332
  749DOPC   D2B 8254   1.259  15.874   6.082
  749DOPC   C3B 8255   1.289  15.924   5.642
  749DOPC   C4B 8256   1.579  15.854   5.312
  750DOPC   NC3 8257   6.209   1.754   3.622
  750DOPC   PO4 8258   5.969   1.584   3.742
  750DOPC   GL1 8259   6.029   1.654   4.192
  750DOPC   GL2 8260   6.269   1.944   4.182
  750DOPC   C1A 8261   6.029   1.694   4.592
  750DOPC   D2A 8262   5.909   1.704   5.022
  750DOPC   C3A 8263   6.009   1.964   5.362
  750DOPC   C4A 8264   5.769   2.264   5.602
  750DOPC   C1B 8265   6.529   1.894   4.592
  750DOPC   D2B 8266   6.449   1.724   5.042
  750DOPC   C3B 8267   6.289   1.574   5.502
  750DOPC   C4B 8268   6.429   1.484   5.942
  751DOPC   NC3 8269  11.879  24.661   4.082
  751DOPC   PO4 8270  11.539  25.001   4.242
  751DOPC   GL1 8271  11.669  24.901   4.692
  751DOPC   GL2 8272  11.539  25.091   4.922
  751DOPC   C1A 8273  11.999  24.901   4.912
  751DOPC   D2A 8274  12.439  24.911   5.252
  751DOPC   C3A 8275  12.389  24.921   5.772
  751DOPC   C4A 8276  12.449  24.701   6.172
  751DOPC   C1B 8277  11.479  24.981   5.292
  751DOPC   D2B 8278  11.259  24.651   5.412
  751DOPC   C3B 8279  11.459  24.471   5.722
  751DOPC   C4B 8280  11.429  24.531   6.272
  752DOPC   NC3 8281  11.449   6.174   8.172
  752DOPC   PO4 8282  11.359   6.164   7.812
  752DOPC   GL1 8283  11.419   6.054   7.402
  752DOPC   GL2 8284  11.089   6.194   7.332
  752DOPC   C1A 8285  11.349   5.664   7.142
  752DOPC   D2A 8286  11.309   5.234   6.842
  752DOPC   C3A 8287  11.099   5.024   6.532
  752DOPC   C4A 8288  11.029   4.664   6.442
  752DOPC   C1B 8289  11.079   6.464   7.042
  752DOPC   D2B 8290  10.819   6.664   6.692
  752DOPC   C3B 8291  10.709   6.484   6.372
  752DOPC   C4B 8292  10.739   6.524   5.832
  753DOPC   NC3 8293  19.579   0.094   7.602
  753DOPC   PO4 8294  19.629   0.494   7.522
  753DOPC   GL1 8295  19.759   0.794   7.172
  753DOPC   GL2 8296  19.569   0.974   7.212
  753DOPC   C1A 8297  19.689   0.574   6.822
  753DOPC   D2A 8298  19.629   0.624   6.322
  753DOPC   C3A 8299  19.459   0.304   6.042
  753DOPC   C4A 8300  19.649  -0.046   5.872
  753DOPC   C1B 8301  19.589   1.204   6.842
  753DOPC   D2B 8302  19.409   1.114   6.472
  753DOPC   C3B 8303  19.299   1.214   5.992
  753DOPC   C4B 8304  18.969   1.204   5.692
  754DOPC   NC3 8305  10.019   1.924   7.772
  754DOPC   PO4 8306  10.019   2.404   7.782
  754DOPC   GL1 8307   9.929   2.464   7.432
  754DOPC   GL2 8308  10.189   2.414   7.252
  754DOPC   C1A 8309   9.909   2.864   7.172
  754DOPC   D2A 8310   9.779   3.224   7.092
  754DOPC   C3A 8311   9.799   3.154   6.732
  754DOPC   C4A 8312   9.719   2.824   6.382
  754DOPC   C1B 8313  10.619   2.324   7.032
  754DOPC   D2B 8314  11.059   2.354   6.932
  754DOPC   C3B 8315  11.059   2.444   6.552
  754DOPC   C4B 8316  10.859   2.324   6.162
  755DOPC   NC3 8317  21.499   4.774   3.342
  755DOPC   PO4 8318  21.389   4.594   3.712
  755DOPC   GL1 8319  21.509   4.344   4.012
  755DOPC   GL2 8320  21.319   4.064   4.202
  755DOPC   C1A 8321  21.839   4.534   4.292
  755DOPC   D2A 8322  21.829   4.614   4.672
  755DOPC   C3A 8323  21.499   4.644   4.942
  755DOPC   C4A 8324  21.409   4.834   5.342
  755DOPC   C1B 8325  21.009   4.004   4.462
  755DOPC   D2B 8326  20.669   3.994   4.792
  755DOPC   C3B 8327  20.379   3.884   4.912
  755DOPC   C4B 8328  20.019   3.714   4.992
  756DOPC   NC3 8329  18.859   4.884   7.612
  756DOPC   PO4 8330  19.129   4.574   7.652
  756DOPC   GL1 8331  19.059   4.454   7.202
  756DOPC   GL2 8332  19.359   4.394   6.982
  756DOPC   C1A 8333  18.769   4.504   6.882
  756DOPC   D2A 8334  18.519   4.844   6.812
  756DOPC   C3A 8335  18.629   4.964   6.302
  756DOPC   C4A 8336  18.639   4.774   5.902
  756DOPC   C1B 8337  19.159   4.324   6.672
  756DOPC   D2B 8338  18.859   4.534   6.382
  756DOPC   C3B 8339  18.729   4.234   5.982
  756DOPC   C4B 8340  18.719   3.944   5.532
  757DOPC   NC3 8341   0.649  24.411   7.802
  757DOPC   PO4 8342   0.389  24.501   7.502
  757DOPC   GL1 8343   0.549  24.691   7.082
  757DOPC   GL2 8344   0.359  24.841   6.842
  757DOPC   C1A 8345   0.869  24.701   6.772
  757DOPC   D2A 8346   1.049  24.521   6.422
  757DOPC   C3A 8347   0.879  24.471   5.972
  757DOPC   C4A 8348   0.529  24.511   5.812
  757DOPC   C1B 8349   0.539  25.111   6.642
  757DOPC   D2B 8350   0.539  25.381   6.242
  757DOPC   C3B 8351   0.529  25.501   5.932
  757DOPC   C4B 8352   0.479  25.851   5.652
  758DOPC   NC3 8353  16.369  19.054   7.852
  758DOPC   PO4 8354  16.319  19.074   7.492
  758DOPC   GL1 8355  16.149  19.014   7.182
  758DOPC   GL2 8356  16.309  18.684   6.962
  758DOPC   C1A 8357  15.839  19.254   6.902
  758DOPC   D2A 8358  15.479  19.494   6.852
  758DOPC   C3A 8359  15.039  19.484   6.582
  758DOPC   C4A 8360  14.689  19.134   6.692
  758DOPC   C1B 8361  16.329  18.524   6.552
  758DOPC   D2B 8362  16.149  18.524   6.102
  758DOPC   C3B 8363  15.709  18.604   5.922
  758DOPC   C4B 8364  15.519  19.134   5.872
  759DOPC   NC3 8365   0.919  15.004   8.012
  759DOPC   PO4 8366   1.469  15.074   7.872
  759DOPC   GL1 8367   1.299  15.174   7.542
  759DOPC   GL2 8368   1.409  15.104   7.232
  759DOPC   C1A 8369   0.989  14.874   7.272
  759DOPC   D2A 8370   0.789  14.744   6.902
  759DOPC   C3A 8371   0.759  15.084   6.542
  759DOPC   C4A 8372   0.649  15.184   6.122
  759DOPC   C1B 8373   1.659  14.934   6.812
  759DOPC   D2B 8374   1.669  14.584   6.502
  759DOPC   C3B 8375   1.459  14.594   6.082
  759DOPC   C4B 8376   1.109  14.604   5.892
  760DOPC   NC3 8377   7.349   5.714   3.662
  760DOPC   PO4 8378   7.269   5.344   3.982
  760DOPC   GL1 8379   7.349   5.344   4.342
  760DOPC   GL2 8380   7.619   5.364   4.582
  760DOPC   C1A 8381   7.369   5.744   4.602
  760DOPC   D2A 8382   7.559   6.104   4.712
  760DOPC   C3A 8383   7.349   6.534   4.892
  760DOPC   C4A 8384   7.549   6.834   5.202
  760DOPC   C1B 8385   7.779   5.564   4.912
  760DOPC   D2B 8386   7.939   6.004   5.052
  760DOPC   C3B 8387   7.579   6.214   5.232
  760DOPC   C4B 8388   7.239   6.524   5.422
  761DOPC   NC3 8389   0.519  10.614   7.802
  761DOPC   PO4 8390   0.649  10.564   7.372
  761DOPC   GL1 8391   0.949  10.434   6.892
  761DOPC   GL2 8392   0.809  10.254   6.722
  761DOPC   C1A 8393   1.199  10.404   6.472
  761DOPC   D2A 8394   1.119  10.344   6.042
  761DOPC   C3A 8395   1.009  10.724   5.742
  761DOPC   C4A 8396   1.059  11.074   5.362
  761DOPC   C1B 8397   0.729  10.214   6.272
  761DOPC   D2B 8398   0.729   9.944   5.872
  761DOPC   C3B 8399   0.769  10.214   5.482
  761DOPC   C4B 8400   0.899  10.574   5.252
  762DOPC   NC3 8401  20.929  25.221   7.482
  762DOPC   PO4 8402  21.299  25.431   7.532
  762DOPC   GL1 8403  21.319  25.501   7.022
  762DOPC   GL2 8404  21.559  25.511   6.872
  762DOPC   C1A 8405  21.119  25.261   6.662
  762DOPC   D2A 8406  21.219  25.381   6.252
  762DOPC   C3A 8407  20.969  25.391   5.872
  762DOPC   C4A 8408  20.539  25.551   5.542
  762DOPC   C1B 8409  21.729  25.341   6.562
  762DOPC   D2B 8410  22.069  25.301   6.222
  762DOPC   C3B 8411  22.039  25.251   5.812
  762DOPC   C4B 8412  21.949  24.951   5.522
  763DOPC   NC3 8413  11.909  20.474  11.232
  763DOPC   PO4 8414  12.289  20.674  11.482
  763DOPC   GL1 8415  11.919  20.534  11.722
  763DOPC   GL2 8416  11.949  20.504  12.042
  763DOPC   C1A 8417  11.519  20.604  11.872
  763DOPC   D2A 8418  11.159  20.604  12.102
  763DOPC   C3A 8419  11.149  20.464  12.532
  763DOPC   C4A 8420  10.889  20.324  12.842
  763DOPC   C1B 8421  12.039  20.574  12.412
  763DOPC   D2B 8422  12.189  20.414  12.792
  763DOPC   C3B 8423  12.439  20.074  12.982
  763DOPC   C4B 8424  12.399  19.654  13.222
  764DOPC   NC3 8425   9.769  16.934   4.572
  764DOPC   PO4 8426   9.859  16.564   4.322
  764DOPC   GL1 8427   9.689  16.364   4.722
  764DOPC   GL2 8428   9.499  16.604   4.892
  764DOPC   C1A 8429   9.499  15.964   4.842
  764DOPC   D2A 8430   9.379  15.584   4.972
  764DOPC   C3A 8431   9.359  15.544   5.442
  764DOPC   C4A 8432   9.009  15.434   5.732
  764DOPC   C1B 8433   9.389  16.514   5.322
  764DOPC   D2B 8434   9.259  16.304   5.642
  764DOPC   C3B 8435   9.359  15.924   5.832
  764DOPC   C4B 8436   9.599  15.614   6.032
  765DOPC   NC3 8437  18.949   7.174   3.662
  765DOPC   PO4 8438  19.239   6.914   3.962
  765DOPC   GL1 8439  19.139   7.024   4.392
  765DOPC   GL2 8440  19.309   7.314   4.562
  765DOPC   C1A 8441  19.029   6.834   4.782
  765DOPC   D2A 8442  19.069   6.634   5.152
  765DOPC   C3A 8443  19.379   6.404   5.212
  765DOPC   C4A 8444  19.719   6.194   5.482
  765DOPC   C1B 8445  19.149   7.374   4.982
  765DOPC   D2B 8446  19.169   7.364   5.432
  765DOPC   C3B 8447  19.209   6.944   5.572
  765DOPC   C4B 8448  19.029   6.804   5.922
  766DOPC   NC3 8449  24.779   4.984   7.052
  766DOPC   PO4 8450  24.619   5.364   6.922
  766DOPC   GL1 8451  24.579   5.194   6.552
  766DOPC   GL2 8452  24.799   4.964   6.462
  766DOPC   C1A 8453  24.439   5.104   6.172
  766DOPC   D2A 8454  24.629   5.084   5.792
  766DOPC   C3A 8455  24.589   4.894   5.402
  766DOPC   C4A 8456  24.579   4.594   5.082
  766DOPC   C1B 8457  24.819   4.594   6.282
  766DOPC   D2B 8458  24.679   4.584   5.822
  766DOPC   C3B 8459  24.969   4.524   5.522
  766DOPC   C4B 8460  25.069   4.764   5.182
  767DOPC   NC3 8461   6.359  19.394   3.782
  767DOPC   PO4 8462   6.139  19.504   4.292
  767DOPC   GL1 8463   5.979  19.474   4.702
  767DOPC   GL2 8464   6.119  19.344   4.962
  767DOPC   C1A 8465   5.699  19.604   5.032
  767DOPC   D2A 8466   5.479  19.654   5.442
  767DOPC   C3A 8467   5.649  19.384   5.802
  767DOPC   C4A 8468   5.519  19.484   6.172
  767DOPC   C1B 8469   6.189  19.044   5.372
  767DOPC   D2B 8470   6.219  18.864   5.772
  767DOPC   C3B 8471   6.039  18.984   6.162
  767DOPC   C4B 8472   6.219  19.064   6.512
  768DOPC   NC3 8473  20.379  21.811   7.722
  768DOPC   PO4 8474  20.039  22.101   7.712
  768DOPC   GL1 8475  20.169  22.031   7.332
  768DOPC   GL2 8476  20.059  22.401   7.112
  768DOPC   C1A 8477  20.389  22.121   6.972
  768DOPC   D2A 8478  20.589  22.131   6.582
  768DOPC   C3A 8479  20.609  22.351   6.252
  768DOPC   C4A 8480  20.959  22.341   6.032
  768DOPC   C1B 8481  20.259  22.521   6.712
  768DOPC   D2B 8482  20.169  22.561   6.362
  768DOPC   C3B 8483  20.419  22.841   6.142
  768DOPC   C4B 8484  20.369  23.281   5.992
  769DOPC   NC3 8485  18.229  21.531   7.932
  769DOPC   PO4 8486  18.349  21.911   7.662
  769DOPC   GL1 8487  18.329  21.811   7.222
  769DOPC   GL2 8488  18.439  21.761   6.962
  769DOPC   C1A 8489  17.979  21.871   6.932
  769DOPC   D2A 8490  17.899  21.861   6.472
  769DOPC   C3A 8491  17.959  21.441   6.192
  769DOPC   C4A 8492  18.099  21.074   5.942
  769DOPC   C1B 8493  18.469  21.371   6.732
  769DOPC   D2B 8494  18.349  21.154   6.362
  769DOPC   C3B 8495  18.679  20.844   6.132
  769DOPC   C4B 8496  18.709  20.514   5.802
  770DOPC   NC3 8497   0.269   7.254   2.842
  770DOPC   PO4 8498   0.659   6.944   2.902
  770DOPC   GL1 8499   0.589   7.054   3.272
  770DOPC   GL2 8500   0.899   7.144   3.322
  770DOPC   C1A 8501   0.589   6.804   3.602
  770DOPC   D2A 8502   0.469   6.424   3.822
  770DOPC   C3A 8503   0.209   6.404   4.182
  770DOPC   C4A 8504   0.389   6.594   4.612
  770DOPC   C1B 8505   1.049   7.264   3.762
  770DOPC   D2B 8506   1.389   7.494   4.122
  770DOPC   C3B 8507   1.129   7.594   4.552
  770DOPC   C4B 8508   1.049   7.504   4.932
  771DOPC   NC3 8509   9.839  25.551   8.352
  771DOPC   PO4 8510   9.809  25.701   7.982
  771DOPC   GL1 8511   9.819  25.441   7.512
  771DOPC   GL2 8512   9.569  25.551   7.242
  771DOPC   C1A 8513  10.099  25.271   7.142
  771DOPC   D2A 8514  10.339  25.311   6.682
  771DOPC   C3A 8515  10.019  25.261   6.282
  771DOPC   C4A 8516  10.179  25.131   5.892
  771DOPC   C1B 8517   9.869  25.661   6.982
  771DOPC   D2B 8518  10.029  25.781   6.662
  771DOPC   C3B 8519   9.929  25.951   6.222
  771DOPC   C4B 8520   9.899  26.081   5.762
  772DOPC   NC3 8521  21.949  10.784   7.582
  772DOPC   PO4 8522  21.609  11.094   7.472
  772DOPC   GL1 8523  21.439  11.374   7.152
  772DOPC   GL2 8524  21.729  11.524   7.132
  772DOPC   C1A 8525  21.239  11.444   6.732
  772DOPC   D2A 8526  21.199  11.474   6.332
  772DOPC   C3A 8527  21.279  11.854   5.992
  772DOPC   C4A 8528  21.149  12.184   5.632
  772DOPC   C1B 8529  21.679  11.704   6.692
  772DOPC   D2B 8530  21.719  11.684   6.222
  772DOPC   C3B 8531  21.999  11.754   5.942
  772DOPC   C4B 8532  22.419  11.944   5.772
  773DOPC   NC3 8533   7.089   5.384   7.712
  773DOPC   PO4 8534   7.059   5.754   7.402
  773DOPC   GL1 8535   7.319   5.804   7.072
  773DOPC   GL2 8536   7.509   6.104   7.032
  773DOPC   C1A 8537   7.169   5.824   6.622
  773DOPC   D2A 8538   7.059   5.834   6.212
  773DOPC   C3A 8539   6.819   5.724   5.812
  773DOPC   C4A 8540   6.909   5.754   5.382
  773DOPC   C1B 8541   7.579   6.124   6.542
  773DOPC   D2B 8542   7.389   6.214   6.232
  773DOPC   C3B 8543   7.549   6.514   6.052
  773DOPC   C4B 8544   7.569   6.944   5.732
  774DOPC   NC3 8545  10.689  12.274   9.102
  774DOPC   PO4 8546  10.519  12.014   8.872
  774DOPC   GL1 8547  10.549  11.974   8.352
  774DOPC   GL2 8548  10.339  12.144   8.212
  774DOPC   C1A 8549  10.559  11.814   7.872
  774DOPC   D2A 8550  10.819  11.734   7.472
  774DOPC   C3A 8551  11.249  11.714   7.312
  774DOPC   C4A 8552  11.479  11.734   6.982
  774DOPC   C1B 8553   9.999  12.084   7.912
  774DOPC   D2B 8554  10.179  12.054   7.562
  774DOPC   C3B 8555  10.599  12.214   7.542
  774DOPC   C4B 8556  11.049  12.154   7.312
  775DOPC   NC3 8557  17.289   7.024   8.252
  775DOPC   PO4 8558  17.579   7.214   7.992
  775DOPC   GL1 8559  17.359   7.104   7.732
  775DOPC   GL2 8560  17.029   7.164   7.832
  775DOPC   C1A 8561  17.159   7.024   7.282
  775DOPC   D2A 8562  17.079   7.144   6.892
  775DOPC   C3A 8563  16.599   7.224   6.692
  775DOPC   C4A 8564  16.509   7.324   7.152
  775DOPC   C1B 8565  16.929   7.464   7.412
  775DOPC   D2B 8566  16.819   7.624   6.992
  775DOPC   C3B 8567  16.429   7.764   6.962
  775DOPC   C4B 8568  16.219   7.684   7.372
  776DOPC   NC3 8569  17.899  19.844   8.092
  776DOPC   PO4 8570  17.999  19.754   7.642
  776DOPC   GL1 8571  18.039  19.764   7.212
  776DOPC   GL2 8572  17.659  19.834   7.192
  776DOPC   C1A 8573  18.059  19.564   6.872
  776DOPC   D2A 8574  18.279  19.264   6.652
  776DOPC   C3A 8575  18.639  19.454   6.452
  776DOPC   C4A 8576  18.899  19.434   6.122
  776DOPC   C1B 8577  17.779  19.964   6.772
  776DOPC   D2B 8578  17.689  19.934   6.292
  776DOPC   C3B 8579  17.819  19.934   5.832
  776DOPC   C4B 8580  18.059  19.774   5.492
  777DOPC   NC3 8581  25.349  10.634   7.712
  777DOPC   PO4 8582  25.726  10.694   7.472
  777DOPC   GL1 8583  25.656  10.904   7.112
  777DOPC   GL2 8584  25.806  10.724   6.842
  777DOPC   C1A 8585  25.299  10.974   6.822
  777DOPC   D2A 8586  25.449  10.674   6.392
  777DOPC   C3A 8587  25.059  10.634   6.092
  777DOPC   C4A 8588  24.649  10.734   5.852
  777DOPC   C1B 8589  25.429  10.474   6.882
  777DOPC   D2B 8590  25.059  10.464   6.622
  777DOPC   C3B 8591  24.869  10.744   6.772
  777DOPC   C4B 8592  24.769  11.134   6.862
  778DOPC   NC3 8593   4.349   9.704   7.242
  778DOPC   PO4 8594   4.209  10.144   7.122
  778DOPC   GL1 8595   4.539  10.164   6.772
  778DOPC   GL2 8596   4.529   9.824   6.822
  778DOPC   C1A 8597   4.999   9.784   6.652
  778DOPC   D2A 8598   5.379   9.754   6.712
  778DOPC   C3A 8599   5.659   9.684   6.472
  778DOPC   C4A 8600   5.789   9.444   6.272
  778DOPC   C1B 8601   4.609   9.924   6.362
  778DOPC   D2B 8602   4.719  10.064   5.912
  778DOPC   C3B 8603   4.599   9.814   5.572
  778DOPC   C4B 8604   4.559   9.454   5.302
  779DOPC   NC3 8605  10.919  20.534   9.062
  779DOPC   PO4 8606  10.649  20.684   8.722
  779DOPC   GL1 8607  10.369  20.584   8.302
  779DOPC   GL2 8608  10.019  20.604   8.302
  779DOPC   C1A 8609  10.409  20.394   7.962
  779DOPC   D2A 8610  10.519  20.264   7.672
  779DOPC   C3A 8611  10.099  20.314   7.492
  779DOPC   C4A 8612   9.789  20.584   7.272
  779DOPC   C1B 8613   9.879  20.574   7.872
  779DOPC   D2B 8614   9.889  20.914   7.642
  779DOPC   C3B 8615   9.579  21.391   7.722
  779DOPC   C4B 8616   9.459  21.661   7.402
  780DOPC   NC3 8617  12.019  15.884   9.262
  780DOPC   PO4 8618  11.779  15.784   8.952
  780DOPC   GL1 8619  11.839  15.684   8.482
  780DOPC   GL2 8620  11.719  15.354   8.422
  780DOPC   C1A 8621  11.909  15.624   8.062
  780DOPC   D2A 8622  11.689  15.704   7.722
  780DOPC   C3A 8623  11.979  15.814   7.382
  780DOPC   C4A 8624  12.449  15.944   7.352
  780DOPC   C1B 8625  11.729  15.094   8.122
  780DOPC   D2B 8626  11.909  14.824   7.852
  780DOPC   C3B 8627  11.839  14.474   7.702
  780DOPC   C4B 8628  11.929  14.154   7.422
  781DOPC   NC3 8629  24.699   2.424   7.852
  781DOPC   PO4 8630  24.649   2.114   7.902
  781DOPC   GL1 8631  24.739   1.964   7.482
  781DOPC   GL2 8632  24.959   2.064   7.172
  781DOPC   C1A 8633  24.519   1.964   7.042
  781DOPC   D2A 8634  24.489   2.224   6.532
  781DOPC   C3A 8635  24.539   2.054   6.092
  781DOPC   C4A 8636  24.499   1.764   5.702
  781DOPC   C1B 8637  24.889   2.244   6.832
  781DOPC   D2B 8638  24.939   1.984   6.492
  781DOPC   C3B 8639  25.409   1.974   6.312
  781DOPC   C4B 8640  25.676   1.604   6.352
  782DOPC   NC3 8641  22.629   6.254   3.572
  782DOPC   PO4 8642  23.089   6.254   3.682
  782DOPC   GL1 8643  23.079   6.174   4.112
  782DOPC   GL2 8644  23.349   6.454   4.172
  782DOPC   C1A 8645  23.349   6.104   4.462
  782DOPC   D2A 8646  23.339   6.044   4.952
  782DOPC   C3A 8647  23.419   6.454   5.102
  782DOPC   C4A 8648  23.479   6.714   5.442
  782DOPC   C1B 8649  23.529   6.664   4.572
  782DOPC   D2B 8650  23.779   6.814   4.892
  782DOPC   C3B 8651  23.869   6.494   5.242
  782DOPC   C4B 8652  23.949   6.264   5.672
  783DOPC   NC3 8653   6.319  11.934   3.432
  783DOPC   PO4 8654   6.349  11.754   3.882
  783DOPC   GL1 8655   6.309  11.754   4.312
  783DOPC   GL2 8656   6.419  12.134   4.242
  783DOPC   C1A 8657   6.429  11.624   4.692
  783DOPC   D2A 8658   6.449  11.784   5.122
  783DOPC   C3A 8659   6.919  11.844   5.172
  783DOPC   C4A 8660   7.099  12.094   5.562
  783DOPC   C1B 8661   6.629  12.064   4.612
  783DOPC   D2B 8662   6.809  12.504   4.822
  783DOPC   C3B 8663   7.129  12.324   5.032
  783DOPC   C4B 8664   7.559  11.994   5.062
  784DOPC   NC3 8665  12.049  16.754   5.022
  784DOPC   PO4 8666  12.199  17.204   4.942
  784DOPC   GL1 8667  12.019  17.244   5.312
  784DOPC   GL2 8668  11.779  17.434   5.332
  784DOPC   C1A 8669  12.259  17.254   5.742
  784DOPC   D2A 8670  12.189  17.484   6.072
  784DOPC   C3A 8671  11.869  17.274   6.292
  784DOPC   C4A 8672  11.479  17.364   6.562
  784DOPC   C1B 8673  11.719  17.174   5.702
  784DOPC   D2B 8674  12.059  16.874   5.952
  784DOPC   C3B 8675  11.979  16.674   6.452
  784DOPC   C4B 8676  11.739  16.504   6.772
  785DOPC   NC3 8677  22.509  14.204   7.792
  785DOPC   PO4 8678  22.069  14.324   7.492
  785DOPC   GL1 8679  22.139  14.254   7.002
  785DOPC   GL2 8680  22.039  14.504   7.032
  785DOPC   C1A 8681  22.229  14.174   6.572
  785DOPC   D2A 8682  22.309  14.164   6.182
  785DOPC   C3A 8683  22.599  14.424   6.052
  785DOPC   C4A 8684  22.919  14.694   6.002
  785DOPC   C1B 8685  21.869  14.714   6.602
  785DOPC   D2B 8686  22.149  14.614   6.232
  785DOPC   C3B 8687  22.429  14.884   6.072
  785DOPC   C4B 8688  22.569  15.204   5.832
  786DOPC   NC3 8689  14.059   2.984   8.502
  786DOPC   PO4 8690  13.869   2.984   8.092
  786DOPC   GL1 8691  13.649   2.994   7.642
  786DOPC   GL2 8692  13.519   2.654   7.572
  786DOPC   C1A 8693  13.649   3.174   7.192
  786DOPC   D2A 8694  13.649   3.284   6.812
  786DOPC   C3A 8695  13.799   2.964   6.422
  786DOPC   C4A 8696  13.659   3.204   6.052
  786DOPC   C1B 8697  13.309   2.474   7.222
  786DOPC   D2B 8698  13.089   2.144   7.102
  786DOPC   C3B 8699  13.299   2.024   6.842
  786DOPC   C4B 8700  13.739   1.884   6.782
  787DOPC   NC3 8701   3.879  15.104   7.222
  787DOPC   PO4 8702   4.079  15.574   7.312
  787DOPC   GL1 8703   4.019  15.664   6.852
  787DOPC   GL2 8704   4.189  15.924   6.792
  787DOPC   C1A 8705   4.119  15.704   6.342
  787DOPC   D2A 8706   4.379  15.824   6.162
  787DOPC   C3A 8707   4.639  16.164   6.072
  787DOPC   C4A 8708   4.639  16.614   5.922
  787DOPC   C1B 8709   4.229  16.234   6.482
  787DOPC   D2B 8710   4.129  16.224   6.002
  787DOPC   C3B 8711   4.119  16.544   5.722
  787DOPC   C4B 8712   3.979  16.574   5.422
  788DOPC   NC3 8713   2.329   4.164   2.972
  788DOPC   PO4 8714   1.929   4.314   2.972
  788DOPC   GL1 8715   1.809   4.274   3.382
  788DOPC   GL2 8716   1.819   4.554   3.552
  788DOPC   C1A 8717   1.959   3.954   3.712
  788DOPC   D2A 8718   1.959   3.804   4.092
  788DOPC   C3A 8719   2.349   3.874   4.292
  788DOPC   C4A 8720   2.519   3.794   4.632
  788DOPC   C1B 8721   1.739   4.494   3.882
  788DOPC   D2B 8722   1.549   4.084   3.982
  788DOPC   C3B 8723   1.499   3.924   4.372
  788DOPC   C4B 8724   1.479   3.854   4.862
  789DOPC   NC3 8725  20.309   1.894   7.462
  789DOPC   PO4 8726  20.169   2.264   7.622
  789DOPC   GL1 8727  20.109   2.204   7.152
  789DOPC   GL2 8728  20.259   2.044   7.032
  789DOPC   C1A 8729  19.869   2.404   6.852
  789DOPC   D2A 8730  19.939   2.414   6.392
  789DOPC   C3A 8731  20.239   2.454   6.102
  789DOPC   C4A 8732  20.249   2.314   5.692
  789DOPC   C1B 8733  20.399   1.694   6.702
  789DOPC   D2B 8734  20.439   1.304   6.612
  789DOPC   C3B 8735  20.309   1.124   6.282
  789DOPC   C4B 8736  20.089   0.724   6.122
  790DOPC   NC3 8737  15.129   2.474   8.302
  790DOPC   PO4 8738  15.579   2.414   8.232
  790DOPC   GL1 8739  15.359   2.384   7.812
  790DOPC   GL2 8740  15.329   2.714   7.842
  790DOPC   C1A 8741  15.059   2.074   7.612
  790DOPC   D2A 8742  14.609   1.944   7.602
  790DOPC   C3A 8743  14.519   1.604   7.412
  790DOPC   C4A 8744  14.239   1.244   7.352
  790DOPC   C1B 8745  15.309   2.434   7.352
  790DOPC   D2B 8746  14.939   2.344   7.152
  790DOPC   C3B 8747  14.999   2.244   6.742
  790DOPC   C4B 8748  14.769   2.074   6.352
  791DOPC   NC3 8749   5.149   5.654   7.312
  791DOPC   PO4 8750   4.819   5.234   7.402
  791DOPC   GL1 8751   4.679   5.324   6.972
  791DOPC   GL2 8752   5.009   5.474   6.872
  791DOPC   C1A 8753   4.619   5.274   6.542
  791DOPC   D2A 8754   4.649   5.094   6.162
  791DOPC   C3A 8755   4.719   5.374   5.902
  791DOPC   C4A 8756   4.619   5.714   5.732
  791DOPC   C1B 8757   5.059   5.814   6.702
  791DOPC   D2B 8758   5.169   6.094   6.332
  791DOPC   C3B 8759   5.559   6.214   6.152
  791DOPC   C4B 8760   5.649   6.174   5.652
  792DOPC   NC3 8761   1.899   4.074   7.142
  792DOPC   PO4 8762   2.299   4.294   7.022
  792DOPC   GL1 8763   2.129   4.054   6.682
  792DOPC   GL2 8764   1.789   4.054   6.612
  792DOPC   C1A 8765   2.099   4.144   6.212
  792DOPC   D2A 8766   2.009   3.964   5.832
  792DOPC   C3A 8767   2.319   4.064   5.602
  792DOPC   C4A 8768   2.459   4.014   5.122
  792DOPC   C1B 8769   1.909   3.734   6.382
  792DOPC   D2B 8770   1.969   3.294   6.222
  792DOPC   C3B 8771   1.749   3.004   6.342
  792DOPC   C4B 8772   1.449   2.844   6.082
  793DOPC   NC3 8773   8.069   3.254   8.122
  793DOPC   PO4 8774   8.439   3.264   7.952
  793DOPC   GL1 8775   8.489   3.094   7.542
  793DOPC   GL2 8776   8.399   2.724   7.542
  793DOPC   C1A 8777   8.289   3.084   7.082
  793DOPC   D2A 8778   8.059   2.884   6.592
  793DOPC   C3A 8779   7.599   2.744   6.522
  793DOPC   C4A 8780   7.239   2.964   6.572
  793DOPC   C1B 8781   8.089   2.694   7.352
  793DOPC   D2B 8782   8.179   2.464   6.882
  793DOPC   C3B 8783   8.559   2.684   6.562
  793DOPC   C4B 8784   8.769   3.104   6.392
  794DOPC   NC3 8785   2.489  16.044   7.762
  794DOPC   PO4 8786   2.909  16.034   7.722
  794DOPC   GL1 8787   2.699  16.004   7.312
  794DOPC   GL2 8788   2.329  15.924   7.292
  794DOPC   C1A 8789   2.829  15.854   6.932
  794DOPC   D2A 8790   2.869  15.944   6.562
  794DOPC   C3A 8791   2.559  15.984   6.282
  794DOPC   C4A 8792   2.209  15.974   6.002
  794DOPC   C1B 8793   2.349  15.714   6.782
  794DOPC   D2B 8794   2.659  15.484   6.542
  794DOPC   C3B 8795   2.899  15.164   6.252
  794DOPC   C4B 8796   3.079  14.754   6.222
  795DOPC   NC3 8797  11.749   4.284   8.462
  795DOPC   PO4 8798  11.399   4.334   8.122
  795DOPC   GL1 8799  11.269   4.614   7.862
  795DOPC   GL2 8800  11.139   4.444   7.672
  795DOPC   C1A 8801  11.269   4.924   7.502
  795DOPC   D2A 8802  10.909   5.094   7.192
  795DOPC   C3A 8803  10.739   4.864   6.922
  795DOPC   C4A 8804  10.519   4.804   6.522
  795DOPC   C1B 8805  11.509   4.524   7.402
  795DOPC   D2B 8806  11.599   4.364   6.962
  795DOPC   C3B 8807  11.529   4.654   6.592
  795DOPC   C4B 8808  11.529   4.884   6.162
  796DOPC   NC3 8809   0.539   4.814   3.552
  796DOPC   PO4 8810   0.559   5.344   3.362
  796DOPC   GL1 8811   0.599   5.284   3.772
  796DOPC   GL2 8812   0.729   5.134   3.902
  796DOPC   C1A 8813   0.539   5.444   4.182
  796DOPC   D2A 8814   0.769   5.744   4.372
  796DOPC   C3A 8815   1.229   5.854   4.342
  796DOPC   C4A 8816   1.659   5.864   4.152
  796DOPC   C1B 8817   0.769   4.824   4.162
  796DOPC   D2B 8818   0.719   4.634   4.532
  796DOPC   C3B 8819   0.829   4.644   4.842
  796DOPC   C4B 8820   0.689   4.644   5.372
  797DOPC   NC3 8821   7.349  24.021   8.202
  797DOPC   PO4 8822   7.079  24.251   7.832
  797DOPC   GL1 8823   7.189  24.281   7.442
  797DOPC   GL2 8824   7.509  24.321   7.522
  797DOPC   C1A 8825   7.059  24.201   7.082
  797DOPC   D2A 8826   6.799  24.451   6.772
  797DOPC   C3A 8827   6.929  24.641   6.392
  797DOPC   C4A 8828   6.969  24.801   6.052
  797DOPC   C1B 8829   7.649  24.651   7.222
  797DOPC   D2B 8830   7.989  24.951   7.262
  797DOPC   C3B 8831   8.309  24.891   6.992
  797DOPC   C4B 8832   8.469  24.601   6.712
  798DOPC   NC3 8833  14.599  13.854   5.302
  798DOPC   PO4 8834  14.669  13.514   5.552
  798DOPC   GL1 8835  14.539  13.224   5.852
  798DOPC   GL2 8836  14.269  12.934   6.002
  798DOPC   C1A 8837  14.729  13.244   6.222
  798DOPC   D2A 8838  14.919  13.394   6.592
  798DOPC   C3A 8839  15.299  13.634   6.562
  798DOPC   C4A 8840  15.539  14.024   6.702
  798DOPC   C1B 8841  14.199  12.974   6.482
  798DOPC   D2B 8842  13.959  13.054   6.812
  798DOPC   C3B 8843  13.529  12.904   6.692
  798DOPC   C4B 8844  13.129  12.854   6.812
  799DOPC   NC3 8845  10.679  21.174   4.722
  799DOPC   PO4 8846  10.369  21.571   4.662
  799DOPC   GL1 8847  10.709  21.791   4.962
  799DOPC   GL2 8848  10.909  21.841   5.042
  799DOPC   C1A 8849  10.669  22.111   5.352
  799DOPC   D2A 8850  10.319  22.171   5.512
  799DOPC   C3A 8851  10.119  22.551   5.882
  799DOPC   C4A 8852   9.849  22.941   5.972
  799DOPC   C1B 8853  11.179  22.161   5.282
  799DOPC   D2B 8854  11.479  22.171   5.532
  799DOPC   C3B 8855  11.619  22.381   5.862
  799DOPC   C4B 8856  12.019  22.621   6.012
  800DOPC   NC3 8857  23.129  13.094   7.842
  800DOPC   PO4 8858  22.919  12.984   7.392
  800DOPC   GL1 8859  23.139  12.804   7.062
  800DOPC   GL2 8860  23.139  12.984   6.822
  800DOPC   C1A 8861  23.589  12.974   6.992
  800DOPC   D2A 8862  23.879  13.304   6.982
  800DOPC   C3A 8863  23.749  13.564   6.512
  800DOPC   C4A 8864  23.679  13.864   6.162
  800DOPC   C1B 8865  23.099  12.704   6.462
  800DOPC   D2B 8866  23.129  12.454   6.182
  800DOPC   C3B 8867  23.529  12.364   6.102
  800DOPC   C4B 8868  23.809  12.414   5.722
  801DOPC   NC3 8869  25.129  24.421   7.842
  801DOPC   PO4 8870  25.029  24.331   7.432
  801DOPC   GL1 8871  24.859  24.131   7.072
  801DOPC   GL2 8872  24.609  23.871   7.162
  801DOPC   C1A 8873  24.919  24.071   6.672
  801DOPC   D2A 8874  24.809  24.041   6.252
  801DOPC   C3A 8875  24.859  23.981   5.772
  801DOPC   C4A 8876  24.599  23.721   5.532
  801DOPC   C1B 8877  24.419  23.681   6.822
  801DOPC   D2B 8878  24.189  23.641   6.352
  801DOPC   C3B 8879  23.799  23.871   6.332
  801DOPC   C4B 8880  23.599  24.191   6.422
  802DOPC   NC3 8881   4.779  14.704   3.542
  802DOPC   PO4 8882   4.809  14.774   3.912
  802DOPC   GL1 8883   4.749  14.684   4.372
  802DOPC   GL2 8884   5.089  14.584   4.262
  802DOPC   C1A 8885   4.689  14.724   4.862
  802DOPC   D2A 8886   4.689  14.544   5.182
  802DOPC   C3A 8887   4.889  14.484   5.512
  802DOPC   C4A 8888   5.029  14.264   5.852
  802DOPC   C1B 8889   5.269  14.714   4.642
  802DOPC   D2B 8890   5.169  14.644   5.172
  802DOPC   C3B 8891   5.149  15.014   5.552
  802DOPC   C4B 8892   5.169  15.004   5.942
  803DOPC   NC3 8893  22.499  19.174   7.802
  803DOPC   PO4 8894  22.439  18.674   7.752
  803DOPC   GL1 8895  22.529  18.724   7.142
  803DOPC   GL2 8896  22.619  18.424   7.052
  803DOPC   C1A 8897  22.519  18.834   6.722
  803DOPC   D2A 8898  22.359  19.084   6.452
  803DOPC   C3A 8899  21.969  18.974   6.292
  803DOPC   C4A 8900  21.829  18.984   5.792
  803DOPC   C1B 8901  22.659  18.424   6.582
  803DOPC   D2B 8902  22.639  18.774   6.232
  803DOPC   C3B 8903  22.829  18.634   5.882
  803DOPC   C4B 8904  22.719  18.664   5.412
  804DOPC   NC3 8905   5.879  21.901   8.222
  804DOPC   PO4 8906   5.499  22.221   8.152
  804DOPC   GL1 8907   5.509  22.071   7.802
  804DOPC   GL2 8908   5.259  21.991   7.622
  804DOPC   C1A 8909   5.599  22.181   7.312
  804DOPC   D2A 8910   5.689  22.131   6.902
  804DOPC   C3A 8911   5.439  21.991   6.562
  804DOPC   C4A 8912   5.269  22.231   6.252
  804DOPC   C1B 8913   5.129  22.001   7.162
  804DOPC   D2B 8914   5.209  22.361   6.942
  804DOPC   C3B 8915   5.249  22.781   7.092
  804DOPC   C4B 8916   5.029  22.951   7.332
  805DOPC   NC3 8917   7.359   7.354   7.512
  805DOPC   PO4 8918   7.029   7.024   7.472
  805DOPC   GL1 8919   6.989   7.254   7.152
  805DOPC   GL2 8920   6.739   7.444   7.112
  805DOPC   C1A 8921   7.039   7.144   6.762
  805DOPC   D2A 8922   6.789   7.324   6.382
  805DOPC   C3A 8923   6.959   7.444   6.002
  805DOPC   C4A 8924   6.779   7.564   5.552
  805DOPC   C1B 8925   6.409   7.264   6.842
  805DOPC   D2B 8926   6.289   7.114   6.462
  805DOPC   C3B 8927   5.929   7.154   6.192
  805DOPC   C4B 8928   5.829   6.884   5.862
  806DOPC   NC3 8929   6.539  20.654   7.932
  806DOPC   PO4 8930   6.839  21.114   8.052
  806DOPC   GL1 8931   6.679  21.154   7.682
  806DOPC   GL2 8932   6.369  21.054   7.592
  806DOPC   C1A 8933   6.669  21.354   7.282
  806DOPC   D2A 8934   6.499  21.561   6.952
  806DOPC   C3A 8935   6.499  21.881   6.562
  806DOPC   C4A 8936   6.509  22.161   6.212
  806DOPC   C1B 8937   6.409  20.964   7.112
  806DOPC   D2B 8938   6.219  21.034   6.712
  806DOPC   C3B 8939   6.169  21.471   6.542
  806DOPC   C4B 8940   6.079  21.761   6.222
  807DOPC   NC3 8941  11.009  13.994   5.542
  807DOPC   PO4 8942  11.279  14.394   5.482
  807DOPC   GL1 8943  11.279  14.314   5.862
  807DOPC   GL2 8944  11.569  14.324   6.022
  807DOPC   C1A 8945  11.139  14.344   6.252
  807DOPC   D2A 8946  10.809  14.434   6.392
  807DOPC   C3A 8947  10.709  14.354   6.772
  807DOPC   C4A 8948  10.569  14.144   7.132
  807DOPC   C1B 8949  11.529  14.194   6.492
  807DOPC   D2B 8950  11.209  14.294   6.812
  807DOPC   C3B 8951  11.069  14.654   6.882
  807DOPC   C4B 8952  10.719  14.794   7.162
  808DOPC   NC3 8953  22.489  14.934   7.302
  808DOPC   PO4 8954  22.929  14.734   7.362
  808DOPC   GL1 8955  22.839  14.784   6.942
  808DOPC   GL2 8956  22.469  14.654   6.872
  808DOPC   C1A 8957  23.159  14.624   6.622
  808DOPC   D2A 8958  23.439  14.724   6.292
  808DOPC   C3A 8959  23.389  14.664   5.812
  808DOPC   C4A 8960  23.359  14.694   5.352
  808DOPC   C1B 8961  22.409  15.004   6.582
  808DOPC   D2B 8962  22.099  15.184   6.402
  808DOPC   C3B 8963  21.919  15.544   6.162
  808DOPC   C4B 8964  21.489  15.424   5.992
  809DOPC   NC3 8965   1.969   4.644   7.302
  809DOPC   PO4 8966   2.279   4.884   7.072
  809DOPC   GL1 8967   2.279   4.774   6.582
  809DOPC   GL2 8968   2.319   4.434   6.492
  809DOPC   C1A 8969   2.099   4.754   6.112
  809DOPC   D2A 8970   2.149   5.124   5.822
  809DOPC   C3A 8971   2.079   5.324   5.382
  809DOPC   C4A 8972   1.939   5.784   5.452
  809DOPC   C1B 8973   2.459   4.394   5.972
  809DOPC   D2B 8974   2.499   4.514   5.432
  809DOPC   C3B 8975   2.729   4.384   5.152
  809DOPC   C4B 8976   2.769   4.444   4.862
  810DOPC   NC3 8977  12.049  20.224   8.412
  810DOPC   PO4 8978  12.349  20.284   8.082
  810DOPC   GL1 8979  12.379  20.604   7.762
  810DOPC   GL2 8980  12.689  20.674   7.732
  810DOPC   C1A 8981  12.169  20.544   7.402
  810DOPC   D2A 8982  11.949  20.384   6.942
  810DOPC   C3A 8983  11.729  20.504   6.662
  810DOPC   C4A 8984  11.459  20.534   6.272
  810DOPC   C1B 8985  12.539  20.924   7.352
  810DOPC   D2B 8986  12.459  21.134   6.872
  810DOPC   C3B 8987  12.159  20.844   6.582
  810DOPC   C4B 8988  11.999  20.664   6.252
  811DOPC   NC3 8989  15.159  11.824   4.392
  811DOPC   PO4 8990  15.639  11.714   4.532
  811DOPC   GL1 8991  15.759  11.584   4.882
  811DOPC   GL2 8992  15.729  11.734   5.172
  811DOPC   C1A 8993  15.739  11.274   5.162
  811DOPC   D2A 8994  15.569  11.524   5.592
  811DOPC   C3A 8995  15.729  11.494   6.012
  811DOPC   C4A 8996  15.899  11.214   6.422
  811DOPC   C1B 8997  16.169  11.914   5.252
  811DOPC   D2B 8998  16.589  11.754   5.252
  811DOPC   C3B 8999  16.889  11.754   5.572
  811DOPC   C4B 9000  17.309  11.744   5.702
  812DOPC   NC3 9001   4.969   1.414   7.762
  812DOPC   PO4 9002   5.219   1.764   7.812
  812DOPC   GL1 9003   5.339   1.964   7.452
  812DOPC   GL2 9004   4.939   1.954   7.392
  812DOPC   C1A 9005   5.299   2.154   7.042
  812DOPC   D2A 9006   5.249   2.374   6.662
  812DOPC   C3A 9007   5.499   2.454   6.292
  812DOPC   C4A 9008   5.839   2.644   6.072
  812DOPC   C1B 9009   4.949   1.574   7.122
  812DOPC   D2B 9010   5.139   1.234   6.892
  812DOPC   C3B 9011   5.199   1.234   6.402
  812DOPC   C4B 9012   5.049   1.164   5.922
  813DOPC   NC3 9013  18.369  13.574   8.022
  813DOPC   PO4 9014  17.959  13.784   7.942
  813DOPC   GL1 9015  17.769  13.854   7.482
  813DOPC   GL2 9016  17.789  14.234   7.262
  813DOPC   C1A 9017  17.469  13.684   7.072
  813DOPC   D2A 9018  17.229  13.664   6.722
  813DOPC   C3A 9019  17.419  13.764   6.382
  813DOPC   C4A 9020  17.289  13.774   5.972
  813DOPC   C1B 9021  17.649  14.694   7.102
  813DOPC   D2B 9022  17.429  14.904   6.782
  813DOPC   C3B 9023  17.209  14.764   6.402
  813DOPC   C4B 9024  16.929  14.594   6.022
  814DOPC   NC3 9025   8.239   1.084   7.692
  814DOPC   PO4 9026   8.009   0.754   7.462
  814DOPC   GL1 9027   7.749   0.584   7.082
  814DOPC   GL2 9028   7.889   0.304   6.992
  814DOPC   C1A 9029   7.699   0.824   6.652
  814DOPC   D2A 9030   7.549   1.244   6.462
  814DOPC   C3A 9031   7.359   1.304   6.072
  814DOPC   C4A 9032   7.419   1.454   5.622
  814DOPC   C1B 9033   7.949   0.274   6.532
  814DOPC   D2B 9034   8.099   0.444   6.162
  814DOPC   C3B 9035   8.389   0.164   6.032
  814DOPC   C4B 9036   8.539  -0.046   5.682
  815DOPC   NC3 9037  20.569   9.634   7.412
  815DOPC   PO4 9038  20.149  10.014   7.622
  815DOPC   GL1 9039  20.059  10.084   7.222
  815DOPC   GL2 9040  20.219  10.434   7.152
  815DOPC   C1A 9041  19.689  10.314   6.942
  815DOPC   D2A 9042  19.359  10.684   6.742
  815DOPC   C3A 9043  19.129  10.614   6.482
  815DOPC   C4A 9044  19.319  10.594   6.112
  815DOPC   C1B 9045  20.149  10.404   6.742
  815DOPC   D2B 9046  20.059  10.174   6.282
  815DOPC   C3B 9047  19.869  10.394   6.022
  815DOPC   C4B 9048  19.799  10.514   5.542
  816DOPC   NC3 9049  13.879   2.004   8.232
  816DOPC   PO4 9050  14.129   1.614   8.052
  816DOPC   GL1 9051  14.049   1.664   7.592
  816DOPC   GL2 9052  13.739   1.504   7.512
  816DOPC   C1A 9053  14.199   1.944   7.302
  816DOPC   D2A 9054  14.589   2.024   7.092
  816DOPC   C3A 9055  14.999   1.834   7.112
  816DOPC   C4A 9056  15.299   1.534   7.032
  816DOPC   C1B 9057  13.849   1.584   7.142
  816DOPC   D2B 9058  14.299   1.594   6.942
  816DOPC   C3B 9059  14.399   1.774   6.562
  816DOPC   C4B 9060  14.199   2.004   6.282
  817DOPC   NC3 9061  16.309   3.364   8.162
  817DOPC   PO4 9062  15.929   3.134   8.112
  817DOPC   GL1 9063  15.719   3.084   7.722
  817DOPC   GL2 9064  15.649   3.424   7.612
  817DOPC   C1A 9065  15.589   2.824   7.432
  817DOPC   D2A 9066  15.509   2.834   7.022
  817DOPC   C3A 9067  15.359   2.554   6.852
  817DOPC   C4A 9068  15.659   2.334   6.592
  817DOPC   C1B 9069  15.869   3.274   7.252
  817DOPC   D2B 9070  15.899   3.144   6.812
  817DOPC   C3B 9071  16.309   2.994   6.592
  817DOPC   C4B 9072  16.449   2.644   6.372
  818DOPC   NC3 9073  20.349   8.884   7.852
  818DOPC   PO4 9074  20.539   9.134   7.422
  818DOPC   GL1 9075  20.389   8.954   7.062
  818DOPC   GL2 9076  20.389   8.664   6.922
  818DOPC   C1A 9077  20.299   9.124   6.702
  818DOPC   D2A 9078  20.229   9.294   6.282
  818DOPC   C3A 9079  20.529   9.244   5.852
  818DOPC   C4A 9080  20.589   9.134   5.442
  818DOPC   C1B 9081  20.289   8.644   6.532
  818DOPC   D2B 9082  20.229   8.834   6.132
  818DOPC   C3B 9083  19.889   8.544   5.912
  818DOPC   C4B 9084  19.569   8.144   5.742
  819DOPC   NC3 9085   7.529   2.744   8.332
  819DOPC   PO4 9086   7.779   2.784   8.012
  819DOPC   GL1 9087   7.979   2.354   7.772
  819DOPC   GL2 9088   7.549   2.284   7.512
  819DOPC   C1A 9089   8.059   2.194   7.332
  819DOPC   D2A 9090   7.929   1.964   6.962
  819DOPC   C3A 9091   8.149   1.774   6.632
  819DOPC   C4A 9092   8.449   1.644   6.162
  819DOPC   C1B 9093   7.759   2.444   7.092
  819DOPC   D2B 9094   7.729   2.234   6.592
  819DOPC   C3B 9095   7.969   2.444   6.302
  819DOPC   C4B 9096   8.289   2.684   6.132
  820DOPC   NC3 9097   9.809  19.414   9.002
  820DOPC   PO4 9098   9.799  19.084   8.672
  820DOPC   GL1 9099   9.589  19.204   8.282
  820DOPC   GL2 9100   9.799  19.434   8.002
  820DOPC   C1A 9101   9.269  19.474   8.152
  820DOPC   D2A 9102   8.759  19.484   8.072
  820DOPC   C3A 9103   8.509  19.594   7.712
  820DOPC   C4A 9104   8.629  19.584   7.242
  820DOPC   C1B 9105   9.939  19.584   7.582
  820DOPC   D2B 9106  10.239  19.824   7.462
  820DOPC   C3B 9107  10.189  19.654   7.112
  820DOPC   C4B 9108  10.049  19.374   6.792
  821DOPC   NC3 9109   1.729  25.231   7.692
  821DOPC   PO4 9110   1.269  25.021   7.712
  821DOPC   GL1 9111   1.269  25.101   7.332
  821DOPC   GL2 9112   1.529  25.371   7.182
  821DOPC   C1A 9113   1.139  25.171   6.862
  821DOPC   D2A 9114   1.089  25.071   6.432
  821DOPC   C3A 9115   0.699  24.901   6.222
  821DOPC   C4A 9116   0.619  25.011   5.742
  821DOPC   C1B 9117   1.739  25.061   6.882
  821DOPC   D2B 9118   2.069  24.981   6.562
  821DOPC   C3B 9119   1.989  25.121   6.172
  821DOPC   C4B 9120   1.969  25.411   5.982
  822DOPC   NC3 9121  13.639   7.854   4.372
  822DOPC   PO4 9122  13.679   8.304   4.482
  822DOPC   GL1 9123  13.729   8.374   4.892
  822DOPC   GL2 9124  14.089   8.324   5.042
  822DOPC   C1A 9125  13.759   8.564   5.372
  822DOPC   D2A 9126  13.709   8.294   5.792
  822DOPC   C3A 9127  14.049   7.934   5.962
  822DOPC   C4A 9128  14.229   7.664   6.212
  822DOPC   C1B 9129  13.799   8.024   5.352
  822DOPC   D2B 9130  13.559   7.764   5.662
  822DOPC   C3B 9131  13.559   7.904   6.082
  822DOPC   C4B 9132  13.749   7.694   6.432
  823DOPC   NC3 9133   9.769  16.334   8.392
  823DOPC   PO4 9134   9.569  15.994   8.392
  823DOPC   GL1 9135   9.379  15.984   8.062
  823DOPC   GL2 9136   9.539  16.104   7.822
  823DOPC   C1A 9137   9.099  16.164   7.602
  823DOPC   D2A 9138   8.779  16.304   7.372
  823DOPC   C3A 9139   8.729  16.464   6.992
  823DOPC   C4A 9140   8.809  16.794   6.722
  823DOPC   C1B 9141   9.479  15.814   7.442
  823DOPC   D2B 9142   9.339  15.404   7.192
  823DOPC   C3B 9143   9.579  15.064   7.182
  823DOPC   C4B 9144   9.899  14.654   7.022
  824DOPC   NC3 9145  19.579  18.354   7.702
  824DOPC   PO4 9146  19.219  17.984   7.502
  824DOPC   GL1 9147  19.289  17.914   7.102
  824DOPC   GL2 9148  19.219  17.594   6.922
  824DOPC   C1A 9149  19.459  18.014   6.782
  824DOPC   D2A 9150  19.229  17.974   6.482
  824DOPC   C3A 9151  19.049  18.024   6.122
  824DOPC   C4A 9152  19.149  17.904   5.652
  824DOPC   C1B 9153  19.389  17.434   6.432
  824DOPC   D2B 9154  19.639  17.224   6.282
  824DOPC   C3B 9155  19.469  16.774   6.302
  824DOPC   C4B 9156  19.219  16.604   6.562
  825DOPC   NC3 9157   4.079  12.194   3.832
  825DOPC   PO4 9158   4.079  12.574   3.762
  825DOPC   GL1 9159   3.979  12.824   4.122
  825DOPC   GL2 9160   3.679  12.834   4.332
  825DOPC   C1A 9161   4.169  13.074   4.512
  825DOPC   D2A 9162   4.209  13.314   4.822
  825DOPC   C3A 9163   4.359  13.154   5.172
  825DOPC   C4A 9164   4.159  13.104   5.592
  825DOPC   C1B 9165   3.819  12.764   4.662
  825DOPC   D2B 9166   3.939  12.814   5.152
  825DOPC   C3B 9167   3.669  12.684   5.422
  825DOPC   C4B 9168   3.219  12.594   5.422
  826DOPC   NC3 9169  15.879   4.364   8.552
  826DOPC   PO4 9170  15.919   4.724   8.222
  826DOPC   GL1 9171  15.979   4.754   7.842
  826DOPC   GL2 9172  16.339   4.774   7.682
  826DOPC   C1A 9173  15.679   4.704   7.412
  826DOPC   D2A 9174  15.849   4.424   7.052
  826DOPC   C3A 9175  15.439   4.404   6.702
  826DOPC   C4A 9176  15.169   4.314   6.402
  826DOPC   C1B 9177  16.229   4.744   7.252
  826DOPC   D2B 9178  16.069   5.084   6.982
  826DOPC   C3B 9179  16.289   5.334   6.832
  826DOPC   C4B 9180  16.049   5.654   6.712
  827DOPC   NC3 9181  20.269   0.784   3.772
  827DOPC   PO4 9182  20.169   0.714   4.052
  827DOPC   GL1 9183  20.259   0.834   4.402
  827DOPC   GL2 9184  20.489   0.604   4.442
  827DOPC   C1A 9185  19.959   0.904   4.682
  827DOPC   D2A 9186  19.809   1.084   5.102
  827DOPC   C3A 9187  20.039   1.284   5.252
  827DOPC   C4A 9188  20.199   1.644   5.562
  827DOPC   C1B 9189  20.219   0.444   4.812
  827DOPC   D2B 9190  19.909   0.534   5.112
  827DOPC   C3B 9191  19.619   0.624   4.872
  827DOPC   C4B 9192  19.159   0.664   4.792
  828DOPC   NC3 9193   9.789  14.214   9.742
  828DOPC   PO4 9194   9.779  14.004   9.372
  828DOPC   GL1 9195   9.679  14.134   8.922
  828DOPC   GL2 9196   9.559  13.974   8.662
  828DOPC   C1A 9197  10.049  14.014   8.672
  828DOPC   D2A 9198  10.309  14.244   8.362
  828DOPC   C3A 9199  10.569  14.084   8.042
  828DOPC   C4A 9200  10.789  13.614   7.932
  828DOPC   C1B 9201   9.669  14.164   8.232
  828DOPC   D2B 9202  10.049  14.104   7.942
  828DOPC   C3B 9203  10.279  14.464   7.882
  828DOPC   C4B 9204  10.659  14.394   7.712
  829DOPC   NC3 9205  22.749   9.084   7.292
  829DOPC   PO4 9206  22.569   9.154   6.832
  829DOPC   GL1 9207  22.439   9.324   6.422
  829DOPC   GL2 9208  22.729   9.534   6.462
  829DOPC   C1A 9209  22.289   9.184   6.052
  829DOPC   D2A 9210  22.319   9.074   5.552
  829DOPC   C3A 9211  22.579   9.314   5.432
  829DOPC   C4A 9212  22.569   9.684   5.372
  829DOPC   C1B 9213  22.519   9.654   6.032
  829DOPC   D2B 9214  22.379   9.954   5.772
  829DOPC   C3B 9215  22.039  10.034   5.792
  829DOPC   C4B 9216  21.719   9.884   5.692
  830DOPC   NC3 9217   0.439   3.944   7.332
  830DOPC   PO4 9218   0.809   4.154   7.052
  830DOPC   GL1 9219   0.709   4.054   6.572
  830DOPC   GL2 9220   0.989   4.354   6.592
  830DOPC   C1A 9221   0.649   3.904   6.082
  830DOPC   D2A 9222   0.479   3.944   5.712
  830DOPC   C3A 9223   0.259   3.644   5.482
  830DOPC   C4A 9224   0.079   3.234   5.222
  830DOPC   C1B 9225   0.819   4.354   6.212
  830DOPC   D2B 9226   0.369   4.304   6.032
  830DOPC   C3B 9227   0.159   4.594   5.962
  830DOPC   C4B 9228  -0.229   4.684   5.692
  831DOPC   NC3 9229   2.849  15.584   3.492
  831DOPC   PO4 9230   2.399  15.544   3.652
  831DOPC   GL1 9231   2.419  15.274   4.032
  831DOPC   GL2 9232   2.089  15.404   4.072
  831DOPC   C1A 9233   2.479  14.994   4.392
  831DOPC   D2A 9234   2.619  14.984   4.772
  831DOPC   C3A 9235   2.719  14.604   4.932
  831DOPC   C4A 9236   2.869  14.304   5.302
  831DOPC   C1B 9237   2.169  15.394   4.482
  831DOPC   D2B 9238   2.099  15.044   4.742
  831DOPC   C3B 9239   2.349  14.914   5.192
  831DOPC   C4B 9240   2.159  14.644   5.492
  832DOPC   NC3 9241  12.329  25.891   4.262
  832DOPC   PO4 9242  12.429  25.491   4.062
  832DOPC   GL1 9243  12.299  25.451   4.522
  832DOPC   GL2 9244  11.929  25.341   4.552
  832DOPC   C1A 9245  12.419  25.481   5.032
  832DOPC   D2A 9246  12.489  25.371   5.462
  832DOPC   C3A 9247  12.859  25.621   5.362
  832DOPC   C4A 9248  13.249  25.781   5.382
  832DOPC   C1B 9249  11.929  25.431   4.922
  832DOPC   D2B 9250  12.019  25.201   5.272
  832DOPC   C3B 9251  11.879  25.331   5.652
  832DOPC   C4B 9252  11.599  25.361   5.992
  833DOPC   NC3 9253  18.499  16.824   4.062
  833DOPC   PO4 9254  18.369  17.334   3.902
  833DOPC   GL1 9255  18.199  17.384   4.262
  833DOPC   GL2 9256  17.819  17.284   4.152
  833DOPC   C1A 9257  17.979  17.274   4.642
  833DOPC   D2A 9258  18.009  17.244   5.062
  833DOPC   C3A 9259  17.999  17.554   5.522
  833DOPC   C4A 9260  18.109  17.704   5.952
  833DOPC   C1B 9261  17.479  17.554   4.322
  833DOPC   D2B 9262  17.119  17.684   4.352
  833DOPC   C3B 9263  16.819  17.874   4.732
  833DOPC   C4B 9264  16.739  17.934   5.152
  834DOPC   NC3 9265  21.659  20.254   3.542
  834DOPC   PO4 9266  21.229  20.064   3.582
  834DOPC   GL1 9267  21.159  19.994   4.022
  834DOPC   GL2 9268  20.959  19.724   4.272
  834DOPC   C1A 9269  21.389  20.014   4.412
  834DOPC   D2A 9270  21.259  19.844   4.712
  834DOPC   C3A 9271  21.409  19.844   5.222
  834DOPC   C4A 9272  21.489  20.224   5.532
  834DOPC   C1B 9273  20.759  19.544   4.592
  834DOPC   D2B 9274  20.609  19.544   4.962
  834DOPC   C3B 9275  20.229  19.374   4.942
  834DOPC   C4B 9276  19.739  19.294   4.932
  835DOPC   NC3 9277  23.909   7.214   7.302
  835DOPC   PO4 9278  23.949   7.664   7.212
  835DOPC   GL1 9279  23.759   7.694   6.832
  835DOPC   GL2 9280  23.859   7.894   6.532
  835DOPC   C1A 9281  23.419   7.754   6.382
  835DOPC   D2A 9282  23.479   7.924   6.052
  835DOPC   C3A 9283  23.079   7.924   5.812
  835DOPC   C4A 9284  22.669   7.944   5.782
  835DOPC   C1B 9285  23.869   7.574   6.172
  835DOPC   D2B 9286  23.799   7.604   5.772
  835DOPC   C3B 9287  24.099   7.734   5.432
  835DOPC   C4B 9288  24.099   7.734   4.992
  836DOPC   NC3 9289  15.719  14.304   8.652
  836DOPC   PO4 9290  15.519  14.774   8.492
  836DOPC   GL1 9291  15.719  14.974   8.152
  836DOPC   GL2 9292  15.519  15.114   8.022
  836DOPC   C1A 9293  15.829  14.694   7.742
  836DOPC   D2A 9294  15.909  14.434   7.452
  836DOPC   C3A 9295  15.869  14.064   7.632
  836DOPC   C4A 9296  15.599  13.684   7.572
  836DOPC   C1B 9297  15.509  15.334   7.662
  836DOPC   D2B 9298  15.399  15.544   7.212
  836DOPC   C3B 9299  15.639  15.354   6.882
  836DOPC   C4B 9300  15.829  15.084   6.582
  837DOPC   NC3 9301  16.619  22.771   7.412
  837DOPC   PO4 9302  16.999  23.101   7.572
  837DOPC   GL1 9303  17.199  23.181   7.102
  837DOPC   GL2 9304  17.289  23.481   6.912
  837DOPC   C1A 9305  17.279  23.061   6.622
  837DOPC   D2A 9306  17.539  22.701   6.382
  837DOPC   C3A 9307  17.989  22.851   6.192
  837DOPC   C4A 9308  18.249  23.151   6.422
  837DOPC   C1B 9309  16.929  23.411   6.732
  837DOPC   D2B 9310  16.819  23.061   6.372
  837DOPC   C3B 9311  17.059  22.671   6.302
  837DOPC   C4B 9312  17.309  22.341   6.192
  838DOPC   NC3 9313  10.159   3.924   8.182
  838DOPC   PO4 9314  10.219   4.274   8.032
  838DOPC   GL1 9315  10.389   4.384   7.642
  838DOPC   GL2 9316  10.669   4.474   7.632
  838DOPC   C1A 9317  10.389   4.494   7.152
  838DOPC   D2A 9318  10.119   4.504   6.762
  838DOPC   C3A 9319  10.129   4.634   6.262
  838DOPC   C4A 9320  10.269   4.594   5.802
  838DOPC   C1B 9321  10.969   4.594   7.282
  838DOPC   D2B 9322  11.219   4.664   6.982
  838DOPC   C3B 9323  11.539   4.894   7.082
  838DOPC   C4B 9324  11.819   4.854   7.322
  839DOPC   NC3 9325  16.309   7.404   4.512
  839DOPC   PO4 9326  16.529   7.754   4.302
  839DOPC   GL1 9327  16.549   7.804   4.722
  839DOPC   GL2 9328  16.829   7.534   4.782
  839DOPC   C1A 9329  16.719   7.954   5.102
  839DOPC   D2A 9330  16.489   8.154   5.462
  839DOPC   C3A 9331  16.199   8.164   5.702
  839DOPC   C4A 9332  15.929   8.344   5.982
  839DOPC   C1B 9333  16.809   7.484   5.162
  839DOPC   D2B 9334  16.629   7.164   5.492
  839DOPC   C3B 9335  16.479   7.234   5.902
  839DOPC   C4B 9336  16.269   7.304   6.252
  840DOPC   NC3 9337   7.679  10.674   7.792
  840DOPC   PO4 9338   7.469  10.654   7.582
  840DOPC   GL1 9339   7.349  10.854   7.202
  840DOPC   GL2 9340   7.059  10.864   6.962
  840DOPC   C1A 9341   7.559  10.974   6.762
  840DOPC   D2A 9342   7.789  11.374   6.642
  840DOPC   C3A 9343   7.909  11.304   6.222
  840DOPC   C4A 9344   7.739  10.964   5.972
  840DOPC   C1B 9345   7.079  10.824   6.582
  840DOPC   D2B 9346   6.729  10.594   6.332
  840DOPC   C3B 9347   7.039  10.414   5.912
  840DOPC   C4B 9348   7.289  10.054   5.582
  841DOPC   NC3 9349  25.409  24.731   7.542
  841DOPC   PO4 9350  25.209  25.251   7.572
  841DOPC   GL1 9351  25.209  25.071   7.192
  841DOPC   GL2 9352  25.019  24.751   7.142
  841DOPC   C1A 9353  25.509  25.131   6.832
  841DOPC   D2A 9354  25.816  25.441   6.722
  841DOPC   C3A 9355  25.726  25.591   6.372
  841DOPC   C4A 9356  25.589  25.721   5.902
  841DOPC   C1B 9357  25.089  24.841   6.742
  841DOPC   D2B 9358  25.129  24.541   6.442
  841DOPC   C3B 9359  25.079  24.411   6.042
  841DOPC   C4B 9360  25.259  24.391   5.562
  842DOPC   NC3 9361   7.459  16.334   4.452
  842DOPC   PO4 9362   7.659  16.004   4.612
  842DOPC   GL1 9363   7.739  16.214   4.932
  842DOPC   GL2 9364   7.529  16.414   5.012
  842DOPC   C1A 9365   7.939  16.204   5.362
  842DOPC   D2A 9366   7.989  15.834   5.632
  842DOPC   C3A 9367   7.709  15.904   5.962
  842DOPC   C4A 9368   7.519  15.734   6.252
  842DOPC   C1B 9369   7.419  16.774   5.312
  842DOPC   D2B 9370   7.049  16.874   5.602
  842DOPC   C3B 9371   6.949  16.844   6.142
  842DOPC   C4B 9372   6.639  16.964   6.502
  843DOPC   NC3 9373  17.949  19.264   7.572
  843DOPC   PO4 9374  17.609  19.354   7.562
  843DOPC   GL1 9375  17.739  19.304   7.132
  843DOPC   GL2 9376  17.929  18.974   7.132
  843DOPC   C1A 9377  17.639  19.484   6.712
  843DOPC   D2A 9378  17.909  19.464   6.342
  843DOPC   C3A 9379  17.699  19.434   6.022
  843DOPC   C4A 9380  17.409  19.424   5.522
  843DOPC   C1B 9381  17.939  18.944   6.752
  843DOPC   D2B 9382  17.949  18.954   6.312
  843DOPC   C3B 9383  18.209  19.164   6.122
  843DOPC   C4B 9384  18.349  19.524   6.042
  844DOPC   NC3 9385   0.609   9.544   7.412
  844DOPC   PO4 9386   0.989   9.614   7.042
  844DOPC   GL1 9387   0.949   9.654   6.572
  844DOPC   GL2 9388   1.069   9.834   6.402
  844DOPC   C1A 9389   1.069   9.324   6.342
  844DOPC   D2A 9390   0.899   9.034   6.002
  844DOPC   C3A 9391   0.779   8.964   5.572
  844DOPC   C4A 9392   0.939   9.154   5.202
  844DOPC   C1B 9393   1.139   9.714   6.032
  844DOPC   D2B 9394   1.179   9.924   5.522
  844DOPC   C3B 9395   1.329  10.404   5.522
  844DOPC   C4B 9396   1.539  10.684   5.612
  845DOPC   NC3 9397  10.619  20.624   4.742
  845DOPC   PO4 9398  10.809  20.534   5.072
  845DOPC   GL1 9399  10.559  20.654   5.432
  845DOPC   GL2 9400  10.649  20.254   5.592
  845DOPC   C1A 9401  10.639  20.834   5.832
  845DOPC   D2A 9402  10.759  21.164   6.102
  845DOPC   C3A 9403  10.399  21.344   6.352
  845DOPC   C4A 9404  10.159  21.571   6.672
  845DOPC   C1B 9405  10.949  20.464   5.752
  845DOPC   D2B 9406  11.129  20.934   5.642
  845DOPC   C3B 9407  11.529  20.974   5.942
  845DOPC   C4B 9408  11.979  20.964   5.832
  846DOPC   NC3 9409  18.519   6.234   4.242
  846DOPC   PO4 9410  18.969   6.004   4.212
  846DOPC   GL1 9411  19.169   6.084   4.632
  846DOPC   GL2 9412  19.419   5.754   4.632
  846DOPC   C1A 9413  18.949   6.094   5.102
  846DOPC   D2A 9414  18.669   5.804   5.322
  846DOPC   C3A 9415  18.379   5.894   5.692
  846DOPC   C4A 9416  18.189   5.644   6.002
  846DOPC   C1B 9417  19.409   5.854   5.132
  846DOPC   D2B 9418  19.209   6.014   5.542
  846DOPC   C3B 9419  18.809   6.034   5.752
  846DOPC   C4B 9420  18.649   5.974   6.142
  847DOPC   NC3 9421  23.219  24.481   3.872
  847DOPC   PO4 9422  23.569  24.551   4.082
  847DOPC   GL1 9423  23.469  24.581   4.492
  847DOPC   GL2 9424  23.269  24.441   4.682
  847DOPC   C1A 9425  23.309  24.941   4.802
  847DOPC   D2A 9426  23.249  25.131   5.192
  847DOPC   C3A 9427  22.859  25.031   5.412
  847DOPC   C4A 9428  22.509  25.311   5.522
  847DOPC   C1B 9429  23.109  24.431   5.082
  847DOPC   D2B 9430  23.169  24.631   5.542
  847DOPC   C3B 9431  22.859  24.501   5.652
  847DOPC   C4B 9432  22.479  24.421   5.922
  848DOPC   NC3 9433   0.309   8.424   6.932
  848DOPC   PO4 9434   0.229   8.014   6.752
  848DOPC   GL1 9435   0.569   7.824   6.422
  848DOPC   GL2 9436   0.799   8.154   6.322
  848DOPC   C1A 9437   0.629   7.634   5.992
  848DOPC   D2A 9438   0.429   7.354   5.682
  848DOPC   C3A 9439   0.239   7.554   5.442
  848DOPC   C4A 9440  -0.069   7.804   5.382
  848DOPC   C1B 9441   0.899   8.104   5.902
  848DOPC   D2B 9442   0.729   7.934   5.482
  848DOPC   C3B 9443   1.019   8.044   5.132
  848DOPC   C4B 9444   1.449   8.144   5.062
  849DOPC   NC3 9445  20.929  11.624   8.032
  849DOPC   PO4 9446  20.789  11.804   7.712
  849DOPC   GL1 9447  20.589  11.854   7.362
  849DOPC   GL2 9448  20.609  11.654   7.172
  849DOPC   C1A 9449  20.809  12.054   6.972
  849DOPC   D2A 9450  21.229  11.914   6.882
  849DOPC   C3A 9451  21.289  11.994   6.482
  849DOPC   C4A 9452  21.189  12.374   6.142
  849DOPC   C1B 9453  20.559  11.634   6.662
  849DOPC   D2B 9454  20.599  11.684   6.262
  849DOPC   C3B 9455  20.349  11.894   5.852
  849DOPC   C4B 9456  19.929  12.204   5.692
  850DOPC   NC3 9457   5.389  15.554   4.082
  850DOPC   PO4 9458   5.039  15.534   3.892
  850DOPC   GL1 9459   4.909  15.314   4.252
  850DOPC   GL2 9460   4.619  15.144   4.142
  850DOPC   C1A 9461   4.929  15.104   4.602
  850DOPC   D2A 9462   5.069  15.074   5.012
  850DOPC   C3A 9463   4.719  15.094   5.302
  850DOPC   C4A 9464   4.279  15.294   5.392
  850DOPC   C1B 9465   4.449  15.094   4.492
  850DOPC   D2B 9466   4.299  15.104   4.892
  850DOPC   C3B 9467   4.159  14.844   5.192
  850DOPC   C4B 9468   4.129  14.474   5.062
  851DOPC   NC3 9469  11.969  18.984   8.482
  851DOPC   PO4 9470  12.029  19.414   8.442
  851DOPC   GL1 9471  11.819  19.164   8.042
  851DOPC   GL2 9472  11.489  19.154   8.102
  851DOPC   C1A 9473  11.989  18.884   7.752
  851DOPC   D2A 9474  11.999  18.384   7.532
  851DOPC   C3A 9475  11.819  18.234   7.122
  851DOPC   C4A 9476  11.929  18.154   6.702
  851DOPC   C1B 9477  11.519  19.304   7.652
  851DOPC   D2B 9478  11.779  19.274   7.302
  851DOPC   C3B 9479  11.489  19.084   7.032
  851DOPC   C4B 9480  11.179  18.904   6.712
  852DOPC   NC3 9481   7.769  20.594   4.252
  852DOPC   PO4 9482   7.949  20.544   4.592
  852DOPC   GL1 9483   7.859  20.494   4.942
  852DOPC   GL2 9484   7.649  20.434   5.242
  852DOPC   C1A 9485   8.049  20.764   5.202
  852DOPC   D2A 9486   8.429  20.814   5.512
  852DOPC   C3A 9487   8.149  20.834   5.912
  852DOPC   C4A 9488   7.849  21.224   6.002
  852DOPC   C1B 9489   7.579  20.864   5.252
  852DOPC   D2B 9490   7.229  21.104   5.512
  852DOPC   C3B 9491   7.389  21.354   5.812
  852DOPC   C4B 9492   7.229  21.521   6.222
  853DOPC   NC3 9493  16.669  13.244   8.692
  853DOPC   PO4 9494  16.309  13.394   8.472
  853DOPC   GL1 9495  15.949  13.484   8.102
  853DOPC   GL2 9496  16.109  13.714   7.922
  853DOPC   C1A 9497  15.609  13.244   7.922
  853DOPC   D2A 9498  15.249  13.194   7.642
  853DOPC   C3A 9499  15.199  13.014   7.232
  853DOPC   C4A 9500  15.149  12.974   6.742
  853DOPC   C1B 9501  16.119  13.604   7.422
  853DOPC   D2B 9502  15.869  13.824   7.102
  853DOPC   C3B 9503  15.459  13.834   7.122
  853DOPC   C4B 9504  15.069  14.034   7.072
  854DOPC   NC3 9505  15.489  22.421   4.212
  854DOPC   PO4 9506  15.619  22.881   4.092
  854DOPC   GL1 9507  15.799  23.171   4.352
  854DOPC   GL2 9508  15.639  23.221   4.602
  854DOPC   C1A 9509  15.999  23.521   4.662
  854DOPC   D2A 9510  16.019  23.991   4.722
  854DOPC   C3A 9511  15.939  24.431   4.832
  854DOPC   C4A 9512  15.909  24.851   4.582
  854DOPC   C1B 9513  15.619  23.161   5.052
  854DOPC   D2B 9514  15.699  23.471   5.412
  854DOPC   C3B 9515  15.409  23.821   5.482
  854DOPC   C4B 9516  15.339  24.191   5.772
  855DOPC   NC3 9517   3.889   1.794   3.532
  855DOPC   PO4 9518   3.699   2.054   3.842
  855DOPC   GL1 9519   3.699   2.184   4.192
  855DOPC   GL2 9520   3.509   2.414   4.252
  855DOPC   C1A 9521   3.399   2.114   4.632
  855DOPC   D2A 9522   3.099   2.124   4.912
  855DOPC   C3A 9523   2.969   1.744   5.092
  855DOPC   C4A 9524   2.649   1.724   5.412
  855DOPC   C1B 9525   3.119   2.574   4.312
  855DOPC   D2B 9526   2.829   2.444   4.652
  855DOPC   C3B 9527   2.359   2.504   4.802
  855DOPC   C4B 9528   2.219   2.684   5.182
  856DOPC   NC3 9529   4.239   5.584   6.932
  856DOPC   PO4 9530   4.329   6.024   6.792
  856DOPC   GL1 9531   4.329   5.774   6.462
  856DOPC   GL2 9532   4.039   5.794   6.272
  856DOPC   C1A 9533   4.749   5.684   6.302
  856DOPC   D2A 9534   5.079   5.364   6.342
  856DOPC   C3A 9535   5.289   5.244   5.872
  856DOPC   C4A 9536   5.009   4.874   5.662
  856DOPC   C1B 9537   4.119   5.694   5.892
  856DOPC   D2B 9538   4.109   5.614   5.522
  856DOPC   C3B 9539   4.129   5.154   5.242
  856DOPC   C4B 9540   4.279   4.724   5.132
  857DOPC   NC3 9541   8.709  24.191   7.862
  857DOPC   PO4 9542   8.419  24.501   8.042
  857DOPC   GL1 9543   8.469  24.461   7.542
  857DOPC   GL2 9544   8.289  24.531   7.292
  857DOPC   C1A 9545   8.609  24.111   7.242
  857DOPC   D2A 9546   8.599  23.721   7.112
  857DOPC   C3A 9547   8.729  23.551   6.732
  857DOPC   C4A 9548   8.929  23.511   6.402
  857DOPC   C1B 9549   8.049  24.381   6.872
  857DOPC   D2B 9550   8.099  24.431   6.452
  857DOPC   C3B 9551   7.819  24.261   6.212
  857DOPC   C4B 9552   7.509  24.081   6.042
  858DOPC   NC3 9553   9.699   5.704   7.862
  858DOPC   PO4 9554   9.839   5.294   7.852
  858DOPC   GL1 9555   9.779   5.184   7.432
  858DOPC   GL2 9556   9.979   5.124   7.362
  858DOPC   C1A 9557   9.649   5.344   7.012
  858DOPC   D2A 9558   9.759   5.544   6.602
  858DOPC   C3A 9559   9.599   5.844   6.412
  858DOPC   C4A 9560   9.479   5.864   5.982
  858DOPC   C1B 9561  10.119   4.984   6.972
  858DOPC   D2B 9562   9.959   4.994   6.632
  858DOPC   C3B 9563  10.119   5.154   6.232
  858DOPC   C4B 9564  10.159   5.124   5.772
  859DOPC   NC3 9565  15.969   6.424   8.492
  859DOPC   PO4 9566  15.659   6.194   8.242
  859DOPC   GL1 9567  15.729   6.344   7.882
  859DOPC   GL2 9568  15.649   6.604   7.722
  859DOPC   C1A 9569  15.729   6.014   7.522
  859DOPC   D2A 9570  15.879   6.014   7.052
  859DOPC   C3A 9571  16.269   6.044   6.892
  859DOPC   C4A 9572  16.619   5.834   7.032
  859DOPC   C1B 9573  15.849   6.484   7.342
  859DOPC   D2B 9574  15.789   6.524   6.962
  859DOPC   C3B 9575  15.679   6.594   6.602
  859DOPC   C4B 9576  15.629   6.434   6.142
  860DOPC   NC3 9577  15.379  10.024   8.442
  860DOPC   PO4 9578  15.789  10.084   8.202
  860DOPC   GL1 9579  15.519  10.094   7.842
  860DOPC   GL2 9580  15.299   9.794   7.792
  860DOPC   C1A 9581  15.359  10.234   7.372
  860DOPC   D2A 9582  15.149  10.124   7.022
  860DOPC   C3A 9583  15.149   9.664   6.682
  860DOPC   C4A 9584  15.529   9.604   6.522
  860DOPC   C1B 9585  14.959   9.844   7.452
  860DOPC   D2B 9586  14.889   9.564   7.132
  860DOPC   C3B 9587  14.579   9.574   6.842
  860DOPC   C4B 9588  14.389   9.794   6.472
  861DOPC   NC3 9589  10.509   3.014   4.142
  861DOPC   PO4 9590  10.109   3.124   4.032
  861DOPC   GL1 9591  10.139   3.374   4.392
  861DOPC   GL2 9592   9.859   3.234   4.502
  861DOPC   C1A 9593  10.229   3.284   4.822
  861DOPC   D2A 9594  10.279   3.284   5.322
  861DOPC   C3A 9595  10.149   3.014   5.552
  861DOPC   C4A 9596  10.439   2.834   5.852
  861DOPC   C1B 9597   9.449   3.374   4.892
  861DOPC   D2B 9598   9.279   3.324   5.272
  861DOPC   C3B 9599   8.909   3.264   5.582
  861DOPC   C4B 9600   8.659   2.924   5.922
  862DOPC   NC3 9601  10.209   2.654   3.592
  862DOPC   PO4 9602  10.659   2.534   3.952
  862DOPC   GL1 9603  10.819   2.594   4.452
  862DOPC   GL2 9604  10.889   2.854   4.632
  862DOPC   C1A 9605  10.899   2.354   4.872
  862DOPC   D2A 9606  11.109   2.254   5.302
  862DOPC   C3A 9607  11.119   2.104   5.652
  862DOPC   C4A 9608  10.869   1.774   5.922
  862DOPC   C1B 9609  10.559   2.954   5.002
  862DOPC   D2B 9610  10.759   2.984   5.382
  862DOPC   C3B 9611  10.609   3.314   5.752
  862DOPC   C4B 9612  10.559   3.624   6.092
  863DOPC   NC3 9613   9.469   8.394   8.282
  863DOPC   PO4 9614   9.609   8.764   8.212
  863DOPC   GL1 9615   9.769   8.864   7.832
  863DOPC   GL2 9616   9.949   8.544   7.792
  863DOPC   C1A 9617   9.959   9.234   7.532
  863DOPC   D2A 9618  10.129   9.544   7.262
  863DOPC   C3A 9619  10.029   9.564   6.862
  863DOPC   C4A 9620   9.759   9.654   6.522
  863DOPC   C1B 9621  10.409   8.374   7.492
  863DOPC   D2B 9622  10.729   8.544   7.262
  863DOPC   C3B 9623  10.489   8.654   6.942
  863DOPC   C4B 9624  10.109   8.434   6.672
  864DOPC   NC3 9625   8.449  12.894   7.962
  864DOPC   PO4 9626   8.289  12.934   7.612
  864DOPC   GL1 9627   8.549  13.074   7.332
  864DOPC   GL2 9628   8.689  12.794   7.202
  864DOPC   C1A 9629   8.799  13.164   6.952
  864DOPC   D2A 9630   9.049  13.254   6.662
  864DOPC   C3A 9631   9.349  13.044   6.522
  864DOPC   C4A 9632   9.649  12.694   6.552
  864DOPC   C1B 9633   8.469  12.894   6.692
  864DOPC   D2B 9634   8.149  13.064   6.352
  864DOPC   C3B 9635   7.969  12.724   6.162
  864DOPC   C4B 9636   7.939  12.624   5.662
  865DOPC   NC3 9637  18.899  21.244   2.892
  865DOPC   PO4 9638  18.789  20.954   3.242
  865DOPC   GL1 9639  18.649  20.634   3.542
  865DOPC   GL2 9640  18.799  20.604   3.782
  865DOPC   C1A 9641  18.319  20.534   3.852
  865DOPC   D2A 9642  18.009  20.474   4.212
  865DOPC   C3A 9643  18.039  20.874   4.452
  865DOPC   C4A 9644  17.989  21.234   4.682
  865DOPC   C1B 9645  18.959  20.384   4.132
  865DOPC   D2B 9646  18.879  20.214   4.462
  865DOPC   C3B 9647  18.699  20.394   4.922
  865DOPC   C4B 9648  18.499  20.574   5.222
  866DOPC   NC3 9649   2.069   8.044   6.812
  866DOPC   PO4 9650   1.759   8.434   6.982
  866DOPC   GL1 9651   1.739   8.534   6.552
  866DOPC   GL2 9652   2.079   8.524   6.502
  866DOPC   C1A 9653   1.599   8.954   6.302
  866DOPC   D2A 9654   1.439   9.254   5.942
  866DOPC   C3A 9655   1.579   9.644   5.712
  866DOPC   C4A 9656   1.819  10.084   5.672
  866DOPC   C1B 9657   2.029   8.744   6.172
  866DOPC   D2B 9658   1.799   8.874   5.782
  866DOPC   C3B 9659   1.649   8.574   5.472
  866DOPC   C4B 9660   1.869   8.524   5.042
  867DOPC   NC3 9661  11.469   3.534   3.812
  867DOPC   PO4 9662  11.049   3.434   4.152
  867DOPC   GL1 9663  11.219   3.424   4.612
  867DOPC   GL2 9664  11.479   3.714   4.672
  867DOPC   C1A 9665  11.519   3.164   4.782
  867DOPC   D2A 9666  11.559   2.964   5.232
  867DOPC   C3A 9667  11.309   3.234   5.712
  867DOPC   C4A 9668  11.059   3.574   5.682
  867DOPC   C1B 9669  11.179   3.924   4.912
  867DOPC   D2B 9670  10.999   4.014   5.422
  867DOPC   C3B 9671  10.659   3.854   5.632
  867DOPC   C4B 9672  10.379   4.054   6.032
  868DOPC   NC3 9673  24.999  12.894   8.172
  868DOPC   PO4 9674  25.079  12.854   7.762
  868DOPC   GL1 9675  25.189  12.644   7.472
  868DOPC   GL2 9676  25.169  12.204   7.502
  868DOPC   C1A 9677  25.259  12.884   7.022
  868DOPC   D2A 9678  25.519  12.714   6.582
  868DOPC   C3A 9679  25.229  12.514   6.262
  868DOPC   C4A 9680  24.979  12.144   6.112
  868DOPC   C1B 9681  25.229  11.924   7.262
  868DOPC   D2B 9682  25.559  11.824   6.922
  868DOPC   C3B 9683  25.609  11.584   6.522
  868DOPC   C4B 9684  25.519  11.194   6.372
  869DOPC   NC3 9685  14.969  11.004   4.682
  869DOPC   PO4 9686  14.499  11.034   4.782
  869DOPC   GL1 9687  14.339  11.184   5.202
  869DOPC   GL2 9688  14.159  11.374   5.472
  869DOPC   C1A 9689  14.349  10.944   5.672
  869DOPC   D2A 9690  14.489  10.624   5.962
  869DOPC   C3A 9691  14.529  10.294   5.822
  869DOPC   C4A 9692  14.549   9.894   5.972
  869DOPC   C1B 9693  14.389  11.534   5.822
  869DOPC   D2B 9694  14.719  11.324   5.632
  869DOPC   C3B 9695  14.739  11.154   5.972
  869DOPC   C4B 9696  14.949  11.004   6.362
  870DOPC   NC3 9697  18.959  23.581   7.522
  870DOPC   PO4 9698  19.359  23.851   7.512
  870DOPC   GL1 9699  19.249  24.131   7.152
  870DOPC   GL2 9700  19.339  24.471   7.122
  870DOPC   C1A 9701  19.179  24.261   6.692
  870DOPC   D2A 9702  19.619  24.311   6.652
  870DOPC   C3A 9703  19.759  24.571   6.292
  870DOPC   C4A 9704  19.889  25.041   6.042
  870DOPC   C1B 9705  19.099  24.751   6.982
  870DOPC   D2B 9706  18.729  24.661   6.902
  870DOPC   C3B 9707  18.799  24.491   6.482
  870DOPC   C4B 9708  18.879  24.351   6.032
  871DOPC   NC3 9709  24.599  19.434   3.412
  871DOPC   PO4 9710  24.389  19.244   3.722
  871DOPC   GL1 9711  24.299  19.314   4.142
  871DOPC   GL2 9712  24.529  19.084   4.242
  871DOPC   C1A 9713  24.089  19.104   4.492
  871DOPC   D2A 9714  24.119  19.054   4.922
  871DOPC   C3A 9715  24.359  19.314   5.152
  871DOPC   C4A 9716  24.439  19.414   5.622
  871DOPC   C1B 9717  24.519  19.394   4.572
  871DOPC   D2B 9718  24.619  19.654   4.882
  871DOPC   C3B 9719  24.929  19.934   4.772
  871DOPC   C4B 9720  25.399  19.974   4.822
  872DOPC   NC3 9721  18.179   8.334   3.752
  872DOPC   PO4 9722  18.429   8.634   3.892
  872DOPC   GL1 9723  18.399   8.684   4.222
  872DOPC   GL2 9724  18.119   8.844   4.372
  872DOPC   C1A 9725  18.579   8.834   4.602
  872DOPC   D2A 9726  18.639   8.414   4.922
  872DOPC   C3A 9727  18.779   8.264   5.372
  872DOPC   C4A 9728  18.939   7.884   5.592
  872DOPC   C1B 9729  18.039   9.184   4.692
  872DOPC   D2B 9730  18.049   9.214   5.172
  872DOPC   C3B 9731  18.209   9.084   5.662
  872DOPC   C4B 9732  17.999   8.804   5.952
  873DOPC   NC3 9733  21.409  10.324   3.742
  873DOPC   PO4 9734  21.629  10.634   3.442
  873DOPC   GL1 9735  21.659  10.814   3.922
  873DOPC   GL2 9736  21.549  11.284   3.912
  873DOPC   C1A 9737  21.789  10.894   4.242
  873DOPC   D2A 9738  21.859  11.214   4.512
  873DOPC   C3A 9739  22.219  11.254   4.602
  873DOPC   C4A 9740  22.599  11.364   4.652
  873DOPC   C1B 9741  21.369  11.254   4.352
  873DOPC   D2B 9742  21.039  11.084   4.562
  873DOPC   C3B 9743  21.069  10.874   4.872
  873DOPC   C4B 9744  21.159  10.664   5.272
  874DOPC   NC3 9745   9.469  12.974   8.842
  874DOPC   PO4 9746   9.809  13.164   8.782
  874DOPC   GL1 9747   9.849  13.524   8.462
  874DOPC   GL2 9748  10.119  13.194   8.312
  874DOPC   C1A 9749   9.819  13.564   7.972
  874DOPC   D2A 9750   9.969  13.474   7.522
  874DOPC   C3A 9751  10.069  13.894   7.242
  874DOPC   C4A 9752   9.759  14.094   7.172
  874DOPC   C1B 9753  10.489  13.014   8.152
  874DOPC   D2B 9754  10.549  12.664   7.802
  874DOPC   C3B 9755  10.839  12.274   8.022
  874DOPC   C4B 9756  11.119  12.064   8.232
  875DOPC   NC3 9757  15.769  14.624   4.112
  875DOPC   PO4 9758  15.849  14.494   4.462
  875DOPC   GL1 9759  16.109  14.454   4.752
  875DOPC   GL2 9760  15.949  14.174   5.042
  875DOPC   C1A 9761  16.399  14.434   5.082
  875DOPC   D2A 9762  16.409  14.574   5.452
  875DOPC   C3A 9763  16.189  14.904   5.422
  875DOPC   C4A 9764  15.939  15.194   5.262
  875DOPC   C1B 9765  15.909  13.764   5.322
  875DOPC   D2B 9766  16.129  13.404   5.192
  875DOPC   C3B 9767  16.439  13.434   5.382
  875DOPC   C4B 9768  16.719  13.234   5.252
  876DOPC   NC3 9769  11.819  23.261   8.142
  876DOPC   PO4 9770  11.419  23.251   8.102
  876DOPC   GL1 9771  11.249  23.371   7.722
  876DOPC   GL2 9772  10.959  23.151   7.692
  876DOPC   C1A 9773  11.489  23.491   7.382
  876DOPC   D2A 9774  11.559  23.251   7.012
  876DOPC   C3A 9775  11.339  23.351   6.722
  876DOPC   C4A 9776  11.059  23.591   6.532
  876DOPC   C1B 9777  10.599  23.051   7.452
  876DOPC   D2B 9778  10.309  22.781   7.202
  876DOPC   C3B 9779   9.979  22.821   6.842
  876DOPC   C4B 9780   9.849  22.631   6.422
  877DOPC   NC3 9781   6.739  21.501   4.392
  877DOPC   PO4 9782   7.069  21.354   4.612
  877DOPC   GL1 9783   6.929  21.431   5.012
  877DOPC   GL2 9784   7.209  21.461   5.092
  877DOPC   C1A 9785   6.739  21.174   5.292
  877DOPC   D2A 9786   6.419  21.314   5.662
  877DOPC   C3A 9787   6.459  21.134   6.092
  877DOPC   C4A 9788   6.659  21.274   6.502
  877DOPC   C1B 9789   7.219  21.681   5.392
  877DOPC   D2B 9790   7.269  22.161   5.492
  877DOPC   C3B 9791   7.439  22.461   5.192
  877DOPC   C4B 9792   7.439  22.881   5.192
  878DOPC   NC3 9793  19.519   6.494   4.062
  878DOPC   PO4 9794  19.759   6.854   3.912
  878DOPC   GL1 9795  19.649   7.044   4.282
  878DOPC   GL2 9796  19.889   6.854   4.402
  878DOPC   C1A 9797  19.799   7.264   4.662
  878DOPC   D2A 9798  20.009   7.074   5.152
  878DOPC   C3A 9799  20.269   7.504   5.342
  878DOPC   C4A 9800  20.399   7.734   5.752
  878DOPC   C1B 9801  19.999   6.654   4.772
  878DOPC   D2B 9802  19.859   6.634   5.172
  878DOPC   C3B 9803  19.659   6.834   5.592
  878DOPC   C4B 9804  19.459   7.094   5.972
  879DOPC   NC3 9805   8.129  17.584   8.462
  879DOPC   PO4 9806   8.159  17.394   8.002
  879DOPC   GL1 9807   8.109  17.364   7.502
  879DOPC   GL2 9808   7.919  17.204   7.292
  879DOPC   C1A 9809   8.139  17.564   6.982
  879DOPC   D2A 9810   7.979  17.434   6.562
  879DOPC   C3A 9811   7.749  17.714   6.382
  879DOPC   C4A 9812   7.479  17.684   6.092
  879DOPC   C1B 9813   7.439  17.104   7.082
  879DOPC   D2B 9814   7.039  17.014   6.812
  879DOPC   C3B 9815   6.969  16.614   6.572
  879DOPC   C4B 9816   6.949  16.334   6.302
  880DOPC   NC3 9817  19.189  17.474   7.482
  880DOPC   PO4 9818  19.599  17.594   7.262
  880DOPC   GL1 9819  19.979  17.344   7.042
  880DOPC   GL2 9820  19.769  17.534   6.742
  880DOPC   C1A 9821  20.119  17.184   6.662
  880DOPC   D2A 9822  20.289  17.094   6.322
  880DOPC   C3A 9823  20.129  17.384   6.002
  880DOPC   C4A 9824  20.059  17.414   5.652
  880DOPC   C1B 9825  20.139  17.644   6.442
  880DOPC   D2B 9826  20.499  17.674   6.102
  880DOPC   C3B 9827  20.609  17.594   5.632
  880DOPC   C4B 9828  20.879  17.404   5.372
  881DOPC   NC3 9829  12.849  11.214  10.252
  881DOPC   PO4 9830  13.009  10.714  10.302
  881DOPC   GL1 9831  12.789  10.874  10.672
  881DOPC   GL2 9832  12.469  10.794  10.562
  881DOPC   C1A 9833  12.899  10.884  11.082
  881DOPC   D2A 9834  12.659  10.964  11.412
  881DOPC   C3A 9835  12.219  11.124  11.512
  881DOPC   C4A 9836  11.789  10.974  11.412
  881DOPC   C1B 9837  12.399  10.684  11.002
  881DOPC   D2B 9838  12.369  10.244  11.132
  881DOPC   C3B 9839  12.209  10.034  11.592
  881DOPC   C4B 9840  12.189   9.754  12.022
  882DOPC   NC3 9841  14.009   9.794   4.712
  882DOPC   PO4 9842  13.629   9.894   4.742
  882DOPC   GL1 9843  13.759   9.604   5.122
  882DOPC   GL2 9844  13.719   9.224   5.092
  882DOPC   C1A 9845  14.019   9.444   5.442
  882DOPC   D2A 9846  14.359   9.344   5.672
  882DOPC   C3A 9847  14.599   9.354   5.902
  882DOPC   C4A 9848  14.759   9.464   6.392
  882DOPC   C1B 9849  13.609   9.144   5.512
  882DOPC   D2B 9850  13.739   8.794   5.812
  882DOPC   C3B 9851  13.819   8.784   6.192
  882DOPC   C4B 9852  14.049   8.424   6.222
  883DOPC   NC3 9853  22.259  11.224   7.412
  883DOPC   PO4 9854  22.389  10.754   7.392
  883DOPC   GL1 9855  22.339  10.714   6.982
  883DOPC   GL2 9856  22.049  10.704   6.762
  883DOPC   C1A 9857  22.529  10.824   6.622
  883DOPC   D2A 9858  22.559  10.984   6.212
  883DOPC   C3A 9859  22.559  10.924   5.822
  883DOPC   C4A 9860  22.699  10.714   5.412
  883DOPC   C1B 9861  22.129  10.914   6.302
  883DOPC   D2B 9862  22.099  11.014   5.922
  883DOPC   C3B 9863  22.029  11.354   5.662
  883DOPC   C4B 9864  22.309  11.394   5.232
  884DOPC   NC3 9865  22.669   6.974   3.242
  884DOPC   PO4 9866  22.469   6.674   3.542
  884DOPC   GL1 9867  22.409   6.644   3.982
  884DOPC   GL2 9868  22.629   6.534   4.032
  884DOPC   C1A 9869  22.379   6.884   4.262
  884DOPC   D2A 9870  22.459   7.334   4.502
  884DOPC   C3A 9871  22.369   7.234   4.842
  884DOPC   C4A 9872  22.209   7.024   5.132
  884DOPC   C1B 9873  22.569   6.394   4.442
  884DOPC   D2B 9874  22.499   6.134   4.812
  884DOPC   C3B 9875  22.309   6.184   5.192
  884DOPC   C4B 9876  22.019   6.174   5.512
  885DOPC   NC3 9877  19.429   5.654  11.562
  885DOPC   PO4 9878  19.179   6.004  11.632
  885DOPC   GL1 9879  19.509   6.084  11.952
  885DOPC   GL2 9880  19.669   6.434  12.012
  885DOPC   C1A 9881  19.439   6.104  12.362
  885DOPC   D2A 9882  19.399   6.084  12.792
  885DOPC   C3A 9883  19.769   5.814  13.002
  885DOPC   C4A 9884  19.799   5.404  13.152
  885DOPC   C1B 9885  19.479   6.684  12.372
  885DOPC   D2B 9886  19.449   6.564  12.682
  885DOPC   C3B 9887  19.469   6.724  13.042
  885DOPC   C4B 9888  19.779   6.744  13.332
  886DOPC   NC3 9889  11.199   6.374  10.862
  886DOPC   PO4 9890  10.769   6.234  10.822
  886DOPC   GL1 9891  10.639   6.404  11.142
  886DOPC   GL2 9892  10.379   6.344  11.252
  886DOPC   C1A 9893  10.619   6.674  11.552
  886DOPC   D2A 9894  10.749   6.794  11.992
  886DOPC   C3A 9895  10.849   6.514  12.422
  886DOPC   C4A 9896  10.999   6.504  12.782
  886DOPC   C1B 9897  10.599   6.134  11.592
  886DOPC   D2B 9898  10.629   5.914  11.982
  886DOPC   C3B 9899  10.929   5.634  12.142
  886DOPC   C4B 9900  11.239   5.474  12.232
  887DOPC   NC3 9901  17.719   3.444   3.982
  887DOPC   PO4 9902  17.259   3.324   3.812
  887DOPC   GL1 9903  17.269   3.414   4.272
  887DOPC   GL2 9904  17.329   3.654   4.402
  887DOPC   C1A 9905  17.159   3.214   4.652
  887DOPC   D2A 9906  17.129   2.814   4.892
  887DOPC   C3A 9907  16.819   2.394   4.772
  887DOPC   C4A 9908  16.599   1.984   5.062
  887DOPC   C1B 9909  17.339   3.684   4.772
  887DOPC   D2B 9910  17.089   3.404   5.102
  887DOPC   C3B 9911  16.739   3.404   5.352
  887DOPC   C4B 9912  16.609   3.274   5.712
  888DOPC   NC3 9913   4.429   9.004   2.542
  888DOPC   PO4 9914   4.409   9.214   2.952
  888DOPC   GL1 9915   4.619   9.344   3.372
  888DOPC   GL2 9916   4.299   9.364   3.562
  888DOPC   C1A 9917   4.609   9.474   3.882
  888DOPC   D2A 9918   4.679   9.324   4.292
  888DOPC   C3A 9919   4.399   9.114   4.462
  888DOPC   C4A 9920   3.999   8.864   4.512
  888DOPC   C1B 9921   4.369   8.934   3.862
  888DOPC   D2B 9922   4.529   8.724   4.222
  888DOPC   C3B 9923   4.399   8.594   4.522
  888DOPC   C4B 9924   4.059   8.494   4.852
  889DOPC   NC3 9925   8.489  21.164   8.252
  889DOPC   PO4 9926   8.199  20.924   8.222
  889DOPC   GL1 9927   8.029  20.794   7.902
  889DOPC   GL2 9928   7.749  20.814   7.772
  889DOPC   C1A 9929   7.939  20.334   7.682
  889DOPC   D2A 9930   7.829  20.104   7.212
  889DOPC   C3A 9931   7.669  20.334   6.832
  889DOPC   C4A 9932   7.389  20.484   6.442
  889DOPC   C1B 9933   7.509  20.474   7.432
  889DOPC   D2B 9934   7.199  20.134   7.432
  889DOPC   C3B 9935   7.229  20.084   7.012
  889DOPC   C4B 9936   7.009  20.404   6.752
  890DOPC   NC3 9937   2.629   5.254   7.202
  890DOPC   PO4 9938   3.129   5.274   7.142
  890DOPC   GL1 9939   3.509   5.244   6.852
  890DOPC   GL2 9940   3.359   5.494   6.752
  890DOPC   C1A 9941   3.649   5.174   6.422
  890DOPC   D2A 9942   3.689   4.894   6.032
  890DOPC   C3A 9943   3.719   4.884   5.642
  890DOPC   C4A 9944   3.749   4.664   5.272
  890DOPC   C1B 9945   3.209   5.654   6.402
  890DOPC   D2B 9946   2.739   5.714   6.252
  890DOPC   C3B 9947   2.709   5.954   5.872
  890DOPC   C4B 9948   2.739   6.334   5.802
  891DOPC   NC3 9949   3.649   8.804   6.852
  891DOPC   PO4 9950   3.839   8.534   6.542
  891DOPC   GL1 9951   3.719   8.564   6.122
  891DOPC   GL2 9952   3.609   8.354   6.122
  891DOPC   C1A 9953   3.619   8.634   5.622
  891DOPC   D2A 9954   3.509   8.664   5.072
  891DOPC   C3A 9955   3.609   8.544   4.642
  891DOPC   C4A 9956   3.529   8.684   4.132
  891DOPC   C1B 9957   3.499   8.034   5.782
  891DOPC   D2B 9958   3.459   7.974   5.372
  891DOPC   C3B 9959   3.479   8.144   4.972
  891DOPC   C4B 9960   3.349   8.124   4.622
  892DOPC   NC3 9961  16.929  10.614   8.032
  892DOPC   PO4 9962  16.529  10.484   7.882
  892DOPC   GL1 9963  16.509  10.444   7.502
  892DOPC   GL2 9964  16.269  10.654   7.432
  892DOPC   C1A 9965  16.689  10.334   7.132
  892DOPC   D2A 9966  16.849  10.394   6.632
  892DOPC   C3A 9967  17.199  10.524   6.402
  892DOPC   C4A 9968  17.589  10.464   6.322
  892DOPC   C1B 9969  16.289  10.574   7.082
  892DOPC   D2B 9970  16.299  10.164   6.972
  892DOPC   C3B 9971  16.049   9.924   6.682
  892DOPC   C4B 9972  16.039   9.934   6.272
  893DOPC   NC3 9973   2.559   6.794   6.442
  893DOPC   PO4 9974   2.849   7.184   6.672
  893DOPC   GL1 9975   2.599   7.434   6.392
  893DOPC   GL2 9976   2.569   7.724   6.422
  893DOPC   C1A 9977   2.269   7.514   6.082
  893DOPC   D2A 9978   1.899   7.184   5.992
  893DOPC   C3A 9979   1.809   7.044   5.642
  893DOPC   C4A 9980   1.979   6.984   5.342
  893DOPC   C1B 9981   2.779   7.604   5.922
  893DOPC   D2B 9982   2.889   7.854   5.622
  893DOPC   C3B 9983   3.039   7.784   5.182
  893DOPC   C4B 9984   2.969   7.724   4.852
  894DOPC   NC3 9985  20.319  19.664   7.782
  894DOPC   PO4 9986  20.619  19.644   7.482
  894DOPC   GL1 9987  20.319  19.524   7.112
  894DOPC   GL2 9988  20.049  19.154   7.062
  894DOPC   C1A 9989  20.079  19.614   6.712
  894DOPC   D2A 9990  20.019  19.464   6.312
  894DOPC   C3A 9991  20.409  19.454   6.282
  894DOPC   C4A 9992  20.489  19.204   5.932
  894DOPC   C1B 9993  20.139  19.104   6.632
  894DOPC   D2B 9994  20.019  19.024   6.202
  894DOPC   C3B 9995  20.099  19.034   5.752
  894DOPC   C4B 9996  19.909  19.314   5.412
  895DOPC   NC3 9997  21.109   3.074   8.262
  895DOPC   PO4 9998  21.119   2.844   7.842
  895DOPC   GL1 9999  21.089   2.844   7.372
  895DOPC   GL210000  21.429   2.814   7.202
  895DOPC   C1A10001  21.079   2.954   6.912
  895DOPC   D2A10002  21.019   3.174   6.422
  895DOPC   C3A10003  20.679   3.424   6.632
  895DOPC   C4A10004  20.389   3.794   6.432
  895DOPC   C1B10005  21.539   2.744   6.662
  895DOPC   D2B10006  21.599   2.884   6.332
  895DOPC   C3B10007  21.589   2.644   5.942
  895DOPC   C4B10008  21.239   2.534   5.562
  896DOPC   NC310009   2.849  18.524   7.642
  896DOPC   PO410010   2.439  18.734   7.672
  896DOPC   GL110011   2.529  18.564   7.262
  896DOPC   GL210012   2.329  18.214   7.162
  896DOPC   C1A10013   2.869  18.354   6.952
  896DOPC   D2A10014   2.879  18.274   6.542
  896DOPC   C3A10015   3.169  17.914   6.422
  896DOPC   C4A10016   3.299  17.664   6.082
  896DOPC   C1B10017   2.429  18.334   6.762
  896DOPC   D2B10018   2.459  18.574   6.432
  896DOPC   C3B10019   2.739  18.484   6.092
  896DOPC   C4B10020   3.039  18.704   5.902
  897DOPC   NC310021   3.529   3.854   8.022
  897DOPC   PO410022   3.619   3.734   7.522
  897DOPC   GL110023   3.459   3.634   7.102
  897DOPC   GL210024   3.309   3.914   6.842
  897DOPC   C1A10025   3.519   3.534   6.602
  897DOPC   D2A10026   3.439   3.624   6.222
  897DOPC   C3A10027   3.719   3.884   6.002
  897DOPC   C4A10028   3.859   4.454   6.072
  897DOPC   C1B10029   3.059   3.874   6.622
  897DOPC   D2B10030   2.929   3.634   6.352
  897DOPC   C3B10031   2.859   3.304   6.602
  897DOPC   C4B10032   3.159   3.124   6.682
  898DOPC   NC310033   6.599   9.704   3.272
  898DOPC   PO410034   6.699   9.824   3.752
  898DOPC   GL110035   6.309   9.794   4.172
  898DOPC   GL210036   5.979   9.784   4.132
  898DOPC   C1A10037   6.169   9.614   4.642
  898DOPC   D2A10038   6.119   9.474   5.052
  898DOPC   C3A10039   5.929   9.534   5.432
  898DOPC   C4A10040   5.769   9.654   5.862
  898DOPC   C1B10041   5.759   9.834   4.442
  898DOPC   D2B10042   5.719   9.754   4.912
  898DOPC   C3B10043   5.469   9.624   5.052
  898DOPC   C4B10044   5.149   9.384   5.042
  899DOPC   NC310045  25.209  15.414   7.932
  899DOPC   PO410046  25.169  15.304   7.552
  899DOPC   GL110047  25.309  15.184   7.172
  899DOPC   GL210048  25.509  15.394   7.102
  899DOPC   C1A10049  25.049  15.354   6.842
  899DOPC   D2A10050  25.009  15.664   6.612
  899DOPC   C3A10051  24.759  16.024   6.512
  899DOPC   C4A10052  24.669  16.404   6.202
  899DOPC   C1B10053  25.666  15.234   6.802
  899DOPC   D2B10054  25.816  15.164   6.412
  899DOPC   C3B10055  25.716  14.834   6.202
  899DOPC   C4B10056  25.329  14.804   6.072
  900DOPC   NC310057  25.019  11.084   3.602
  900DOPC   PO410058  25.489  11.334   3.562
  900DOPC   GL110059  25.489  11.324   3.982
  900DOPC   GL210060  25.329  11.424   4.212
  900DOPC   C1A10061  25.279  10.924   4.162
  900DOPC   D2A10062  25.379  10.644   4.692
  900DOPC   C3A10063  25.259  10.124   4.682
  900DOPC   C4A10064  25.089   9.844   5.012
  900DOPC   C1B10065  25.319  11.604   4.672
  900DOPC   D2B10066  25.429  11.584   5.082
  900DOPC   C3B10067  25.559  11.174   5.372
  900DOPC   C4B10068  25.589  10.794   5.602
  901DOPC   NC310069  17.259   4.214   7.872
  901DOPC   PO410070  17.109   4.614   7.942
  901DOPC   GL110071  17.039   4.644   7.562
  901DOPC   GL210072  17.199   4.834   7.372
  901DOPC   C1A10073  16.599   4.454   7.332
  901DOPC   D2A10074  16.619   4.284   6.922
  901DOPC   C3A10075  16.229   4.094   6.852
  901DOPC   C4A10076  15.759   4.004   6.882
  901DOPC   C1B10077  17.079   4.494   7.052
  901DOPC   D2B10078  16.989   4.264   6.582
  901DOPC   C3B10079  16.869   4.414   6.322
  901DOPC   C4B10080  16.669   4.534   5.962
  902DOPC   NC310081  23.239   1.514   7.702
  902DOPC   PO410082  23.569   1.794   7.432
  902DOPC   GL110083  23.549   1.734   6.932
  902DOPC   GL210084  23.229   1.544   6.782
  902DOPC   C1A10085  23.499   1.984   6.532
  902DOPC   D2A10086  23.509   1.944   5.982
  902DOPC   C3A10087  23.609   2.114   5.682
  902DOPC   C4A10088  23.309   1.864   5.382
  902DOPC   C1B10089  23.269   1.574   6.362
  902DOPC   D2B10090  23.449   1.454   5.952
  902DOPC   C3B10091  23.139   1.534   5.762
  902DOPC   C4B10092  22.869   1.674   5.462
  903DOPC   NC310093  21.279   2.204   3.852
  903DOPC   PO410094  20.889   2.414   3.832
  903DOPC   GL110095  21.079   2.654   4.092
  903DOPC   GL210096  20.809   2.894   4.232
  903DOPC   C1A10097  21.409   2.854   4.332
  903DOPC   D2A10098  21.609   3.044   4.562
  903DOPC   C3A10099  21.999   3.114   4.812
  903DOPC   C4A10100  22.219   3.374   4.922
  903DOPC   C1B10101  20.889   3.134   4.632
  903DOPC   D2B10102  20.789   3.164   5.112
  903DOPC   C3B10103  21.169   3.054   5.432
  903DOPC   C4B10104  21.329   3.114   5.872
  904DOPC   NC310105   4.119   9.294   7.402
  904DOPC   PO410106   4.529   9.244   7.082
  904DOPC   GL110107   4.599   9.234   6.672
  904DOPC   GL210108   4.659   9.004   6.442
  904DOPC   C1A10109   4.769   9.484   6.232
  904DOPC   D2A10110   4.899   9.584   5.852
  904DOPC   C3A10111   5.009   9.224   5.522
  904DOPC   C4A10112   5.329   8.954   5.322
  904DOPC   C1B10113   4.929   9.064   6.132
  904DOPC   D2B10114   5.079   8.794   5.712
  904DOPC   C3B10115   4.999   8.564   5.412
  904DOPC   C4B10116   5.169   8.434   5.092
  905DOPC   NC310117   4.399  18.754   8.332
  905DOPC   PO410118   4.299  19.024   8.042
  905DOPC   GL110119   4.469  19.014   7.672
  905DOPC   GL210120   4.269  18.694   7.562
  905DOPC   C1A10121   4.469  19.034   7.242
  905DOPC   D2A10122   4.339  19.034   6.832
  905DOPC   C3A10123   4.129  18.694   6.712
  905DOPC   C4A10124   3.939  18.354   6.922
  905DOPC   C1B10125   4.319  18.554   7.152
  905DOPC   D2B10126   4.519  18.414   6.842
  905DOPC   C3B10127   4.639  18.704   6.572
  905DOPC   C4B10128   4.819  18.924   6.152
  906DOPC   NC310129   2.969  17.314   7.532
  906DOPC   PO410130   3.309  17.624   7.652
  906DOPC   GL110131   3.349  17.484   7.222
  906DOPC   GL210132   3.409  17.184   7.092
  906DOPC   C1A10133   3.329  17.484   6.742
  906DOPC   D2A10134   3.699  17.454   6.522
  906DOPC   C3A10135   3.669  17.164   6.132
  906DOPC   C4A10136   3.809  16.964   5.712
  906DOPC   C1B10137   3.359  16.794   6.782
  906DOPC   D2B10138   3.249  16.654   6.432
  906DOPC   C3B10139   2.789  16.404   6.382
  906DOPC   C4B10140   2.489  16.364   5.982
  907DOPC   NC310141   6.619   4.274   4.202
  907DOPC   PO410142   6.289   3.874   4.142
  907DOPC   GL110143   6.369   3.754   4.542
  907DOPC   GL210144   6.699   3.894   4.562
  907DOPC   C1A10145   6.469   3.424   4.902
  907DOPC   D2A10146   6.439   3.044   5.252
  907DOPC   C3A10147   6.239   3.044   5.542
  907DOPC   C4A10148   5.849   3.154   5.902
  907DOPC   C1B10149   6.569   4.034   4.932
  907DOPC   D2B10150   6.289   3.814   5.122
  907DOPC   C3B10151   6.169   3.984   5.422
  907DOPC   C4B10152   5.819   3.964   5.702
  908DOPC   NC310153   3.349   5.904   7.002
  908DOPC   PO410154   3.299   6.204   6.712
  908DOPC   GL110155   3.569   5.994   6.372
  908DOPC   GL210156   3.629   6.204   6.122
  908DOPC   C1A10157   3.629   5.624   6.112
  908DOPC   D2A10158   3.719   5.354   5.732
  908DOPC   C3A10159   3.439   5.504   5.452
  908DOPC   C4A10160   3.289   5.774   5.142
  908DOPC   C1B10161   3.189   6.054   6.032
  908DOPC   D2B10162   3.049   5.634   5.762
  908DOPC   C3B10163   2.839   5.344   5.922
  908DOPC   C4B10164   2.559   5.194   6.292
  909DOPC   NC310165  21.829  18.654   7.392
  909DOPC   PO410166  21.609  18.164   7.572
  909DOPC   GL110167  21.619  17.954   7.192
  909DOPC   GL210168  21.759  18.104   7.012
  909DOPC   C1A10169  21.579  17.624   6.802
  909DOPC   D2A10170  21.349  17.534   6.482
  909DOPC   C3A10171  21.389  17.704   6.132
  909DOPC   C4A10172  21.239  17.604   5.732
  909DOPC   C1B10173  21.339  18.424   7.072
  909DOPC   D2B10174  20.919  18.344   6.892
  909DOPC   C3B10175  20.629  18.574   6.732
  909DOPC   C4B10176  20.579  19.014   6.472
  910DOPC   NC310177  11.809  17.164   9.132
  910DOPC   PO410178  11.999  17.094   8.712
  910DOPC   GL110179  11.939  17.214   8.392
  910DOPC   GL210180  12.239  17.044   8.252
  910DOPC   C1A10181  11.759  17.484   8.072
  910DOPC   D2A10182  11.869  17.894   7.862
  910DOPC   C3A10183  11.949  17.874   7.422
  910DOPC   C4A10184  11.859  17.684   7.022
  910DOPC   C1B10185  12.359  17.014   7.802
  910DOPC   D2B10186  12.349  17.004   7.342
  910DOPC   C3B10187  11.959  17.184   7.142
  910DOPC   C4B10188  11.789  17.114   6.782
  911DOPC   NC310189  18.879  18.714   7.352
  911DOPC   PO410190  18.949  18.734   6.922
  911DOPC   GL110191  19.369  18.604   6.752
  911DOPC   GL210192  19.669  18.424   6.842
  911DOPC   C1A10193  19.239  18.504   6.312
  911DOPC   D2A10194  19.069  18.654   5.872
  911DOPC   C3A10195  19.099  18.964   5.562
  911DOPC   C4A10196  19.429  19.244   5.312
  911DOPC   C1B10197  19.739  18.614   6.442
  911DOPC   D2B10198  20.009  18.444   6.072
  911DOPC   C3B10199  20.049  18.044   5.982
  911DOPC   C4B10200  19.979  17.904   5.532
  912DOPC   NC310201  23.779   8.104   7.412
  912DOPC   PO410202  23.729   8.504   7.162
  912DOPC   GL110203  23.729   8.634   6.692
  912DOPC   GL210204  23.519   8.454   6.552
  912DOPC   C1A10205  23.539   8.814   6.212
  912DOPC   D2A10206  23.379   8.994   5.902
  912DOPC   C3A10207  23.309   8.774   5.482
  912DOPC   C4A10208  23.619   8.524   5.262
  912DOPC   C1B10209  23.689   8.344   6.182
  912DOPC   D2B10210  23.629   8.364   5.782
  912DOPC   C3B10211  23.689   8.044   5.572
  912DOPC   C4B10212  23.659   7.934   5.212
  913DOPC   NC310213  21.329  24.351   3.812
  913DOPC   PO410214  21.629  24.351   4.042
  913DOPC   GL110215  21.559  24.491   4.572
  913DOPC   GL210216  21.859  24.561   4.702
  913DOPC   C1A10217  21.429  24.271   5.012
  913DOPC   D2A10218  21.629  24.051   5.342
  913DOPC   C3A10219  22.029  24.121   5.072
  913DOPC   C4A10220  22.439  24.141   5.172
  913DOPC   C1B10221  21.899  24.571   5.202
  913DOPC   D2B10222  21.909  24.431   5.542
  913DOPC   C3B10223  21.889  24.661   5.972
  913DOPC   C4B10224  21.829  24.871   6.442
  914DOPC   NC310225  16.459  21.284   8.372
  914DOPC   PO410226  16.379  21.371   7.942
  914DOPC   GL110227  16.199  21.421   7.552
  914DOPC   GL210228  16.289  21.124   7.372
  914DOPC   C1A10229  16.099  21.551   7.112
  914DOPC   D2A10230  16.099  21.631   6.742
  914DOPC   C3A10231  16.439  21.791   6.432
  914DOPC   C4A10232  16.539  21.831   5.972
  914DOPC   C1B10233  16.379  21.134   6.932
  914DOPC   D2B10234  16.649  21.334   6.652
  914DOPC   C3B10235  16.619  21.354   6.222
  914DOPC   C4B10236  16.539  21.144   5.762
  915DOPC   NC310237   4.469  17.774   3.642
  915DOPC   PO410238   4.189  17.524   3.562
  915DOPC   GL110239   4.259  17.374   3.922
  915DOPC   GL210240   4.029  17.184   4.052
  915DOPC   C1A10241   4.549  17.304   4.252
  915DOPC   D2A10242   4.719  17.484   4.642
  915DOPC   C3A10243   4.959  17.214   4.942
  915DOPC   C4A10244   5.219  16.894   5.132
  915DOPC   C1B10245   4.049  17.074   4.462
  915DOPC   D2B10246   4.209  17.334   4.852
  915DOPC   C3B10247   4.019  17.654   5.132
  915DOPC   C4B10248   4.219  18.014   5.092
  916DOPC   NC310249  11.539  23.991   4.252
  916DOPC   PO410250  11.119  24.151   4.392
  916DOPC   GL110251  10.999  24.421   4.702
  916DOPC   GL210252  11.239  24.641   4.592
  916DOPC   C1A10253  10.949  24.621   4.992
  916DOPC   D2A10254  10.709  24.611   5.372
  916DOPC   C3A10255  10.839  24.391   5.722
  916DOPC   C4A10256  10.999  24.411   6.112
  916DOPC   C1B10257  11.429  24.491   4.902
  916DOPC   D2B10258  11.859  24.521   5.152
  916DOPC   C3B10259  11.889  24.741   5.542
  916DOPC   C4B10260  11.919  24.681   6.042
  917DOPC   NC310261  22.319   2.404   7.472
  917DOPC   PO410262  22.479   2.034   7.452
  917DOPC   GL110263  22.389   1.924   7.082
  917DOPC   GL210264  22.299   1.634   6.922
  917DOPC   C1A10265  22.299   2.124   6.652
  917DOPC   D2A10266  22.469   2.094   6.322
  917DOPC   C3A10267  22.279   2.314   5.912
  917DOPC   C4A10268  22.159   2.664   5.742
  917DOPC   C1B10269  21.999   1.734   6.662
  917DOPC   D2B10270  21.659   1.974   6.472
  917DOPC   C3B10271  21.689   2.074   6.062
  917DOPC   C4B10272  21.839   2.294   5.662
  918DOPC   NC310273  20.849   1.464   3.672
  918DOPC   PO410274  21.279   1.714   3.792
  918DOPC   GL110275  21.639   1.784   4.142
  918DOPC   GL210276  21.979   1.654   4.122
  918DOPC   C1A10277  21.689   1.784   4.592
  918DOPC   D2A10278  21.739   2.034   5.012
  918DOPC   C3A10279  21.499   2.064   5.452
  918DOPC   C4A10280  21.149   2.004   5.812
  918DOPC   C1B10281  22.039   1.414   4.532
  918DOPC   D2B10282  22.049   1.544   4.942
  918DOPC   C3B10283  22.089   1.674   5.292
  918DOPC   C4B10284  22.029   1.834   5.712
  919DOPC   NC310285  20.449  10.354   7.562
  919DOPC   PO410286  20.649  10.124   7.282
  919DOPC   GL110287  20.649  10.174   6.942
  919DOPC   GL210288  20.569   9.844   6.862
  919DOPC   C1A10289  20.589  10.184   6.542
  919DOPC   D2A10290  20.819  10.114   6.232
  919DOPC   C3A10291  20.659  10.164   5.832
  919DOPC   C4A10292  20.279  10.104   5.672
  919DOPC   C1B10293  20.449   9.724   6.552
  919DOPC   D2B10294  20.349   9.804   6.152
  919DOPC   C3B10295  20.129   9.554   5.832
  919DOPC   C4B10296  19.729   9.514   5.852
  920DOPC   NC310297  22.919  14.744   3.752
  920DOPC   PO410298  22.639  14.434   3.752
  920DOPC   GL110299  22.549  14.604   4.152
  920DOPC   GL210300  22.839  14.544   4.252
  920DOPC   C1A10301  22.489  14.714   4.542
  920DOPC   D2A10302  22.859  14.674   4.842
  920DOPC   C3A10303  22.979  14.944   4.542
  920DOPC   C4A10304  23.259  15.244   4.452
  920DOPC   C1B10305  23.249  14.534   4.422
  920DOPC   D2B10306  23.549  14.764   4.512
  920DOPC   C3B10307  23.379  14.924   4.882
  920DOPC   C4B10308  23.529  15.244   5.172
  921DOPC   NC310309  24.459  10.324   7.502
  921DOPC   PO410310  24.579  10.094   7.132
  921DOPC   GL110311  24.649  10.104   6.692
  921DOPC   GL210312  24.439   9.984   6.522
  921DOPC   C1A10313  24.619  10.424   6.372
  921DOPC   D2A10314  24.209  10.494   6.112
  921DOPC   C3A10315  24.109  10.594   5.692
  921DOPC   C4A10316  24.089  10.654   5.272
  921DOPC   C1B10317  24.069   9.914   6.242
  921DOPC   D2B10318  23.949   9.994   5.812
  921DOPC   C3B10319  24.069   9.594   5.802
  921DOPC   C4B10320  23.779   9.274   5.812
  922DOPC   NC310321   2.269  21.731   4.202
  922DOPC   PO410322   2.069  21.314   4.042
  922DOPC   GL110323   1.979  21.421   4.472
  922DOPC   GL210324   1.979  21.154   4.662
  922DOPC   C1A10325   2.039  21.621   4.852
  922DOPC   D2A10326   1.969  21.721   5.272
  922DOPC   C3A10327   1.889  21.471   5.642
  922DOPC   C4A10328   1.629  21.114   5.902
  922DOPC   C1B10329   2.059  21.144   5.072
  922DOPC   D2B10330   2.419  21.334   5.252
  922DOPC   C3B10331   2.419  21.471   5.692
  922DOPC   C4B10332   2.619  21.421   6.052
  923DOPC   NC310333   7.979   1.724   3.922
  923DOPC   PO410334   8.429   1.714   3.922
  923DOPC   GL110335   8.249   1.644   4.342
  923DOPC   GL210336   7.979   1.444   4.302
  923DOPC   C1A10337   8.199   1.544   4.812
  923DOPC   D2A10338   8.389   1.874   5.192
  923DOPC   C3A10339   8.209   2.094   5.642
  923DOPC   C4A10340   7.979   2.374   5.842
  923DOPC   C1B10341   7.789   1.224   4.682
  923DOPC   D2B10342   7.799   0.794   4.932
  923DOPC   C3B10343   7.399   0.534   5.012
  923DOPC   C4B10344   7.129   0.294   5.322
  924DOPC   NC310345  17.729   1.394   7.902
  924DOPC   PO410346  18.139   1.504   7.742
  924DOPC   GL110347  18.139   1.604   7.322
  924DOPC   GL210348  18.029   1.864   7.202
  924DOPC   C1A10349  18.229   1.454   6.892
  924DOPC   D2A10350  18.229   1.724   6.632
  924DOPC   C3A10351  18.149   1.474   6.242
  924DOPC   C4A10352  17.969   1.304   5.912
  924DOPC   C1B10353  18.179   2.174   6.922
  924DOPC   D2B10354  18.379   2.194   6.522
  924DOPC   C3B10355  18.179   2.024   6.182
  924DOPC   C4B10356  17.889   1.914   5.922
  925DOPC   NC310357  22.669  25.401   7.672
  925DOPC   PO410358  22.319  25.491   7.392
  925DOPC   GL110359  22.209  25.441   6.932
  925DOPC   GL210360  22.149  25.051   6.872
  925DOPC   C1A10361  22.149  25.601   6.612
  925DOPC   D2A10362  21.959  25.921   6.242
  925DOPC   C3A10363  22.219  26.231   6.032
  925DOPC   C4A10364  22.269  26.661   6.142
  925DOPC   C1B10365  21.949  24.661   6.822
  925DOPC   D2B10366  21.689  24.371   6.682
  925DOPC   C3B10367  21.489  24.431   6.282
  925DOPC   C4B10368  21.339  24.621   5.912
  926DOPC   NC310369  11.789  16.664   8.942
  926DOPC   PO410370  11.469  17.024   8.842
  926DOPC   GL110371  11.539  16.834   8.402
  926DOPC   GL210372  11.679  16.564   8.282
  926DOPC   C1A10373  11.709  17.004   7.982
  926DOPC   D2A10374  11.759  17.264   7.582
  926DOPC   C3A10375  12.099  17.424   7.582
  926DOPC   C4A10376  12.219  17.494   7.942
  926DOPC   C1B10377  11.529  16.534   7.892
  926DOPC   D2B10378  11.469  16.454   7.402
  926DOPC   C3B10379  11.419  15.994   7.362
  926DOPC   C4B10380  11.449  15.654   7.172
  927DOPC   NC310381  11.389   8.664   8.682
  927DOPC   PO410382  11.789   8.644   8.482
  927DOPC   GL110383  11.639   8.684   8.072
  927DOPC   GL210384  11.259   8.694   7.992
  927DOPC   C1A10385  11.599   8.584   7.652
  927DOPC   D2A10386  11.589   8.744   7.262
  927DOPC   C3A10387  11.799   9.024   7.172
  927DOPC   C4A10388  11.959   9.314   6.852
  927DOPC   C1B10389  11.419   9.114   7.712
  927DOPC   D2B10390  11.699   9.364   7.582
  927DOPC   C3B10391  11.769   9.644   7.212
  927DOPC   C4B10392  11.829   9.864   6.812
  928DOPC   NC310393  20.299   6.984   4.052
  928DOPC   PO410394  20.729   7.124   3.962
  928DOPC   GL110395  20.619   7.284   4.342
  928DOPC   GL210396  20.369   7.014   4.562
  928DOPC   C1A10397  20.559   7.584   4.622
  928DOPC   D2A10398  20.399   7.814   4.882
  928DOPC   C3A10399  20.039   7.864   4.942
  928DOPC   C4A10400  19.709   8.114   5.072
  928DOPC   C1B10401  20.439   6.824   4.972
  928DOPC   D2B10402  20.469   6.914   5.382
  928DOPC   C3B10403  20.199   7.074   5.642
  928DOPC   C4B10404  19.919   7.254   5.972
  929DOPC   NC310405   0.589  10.464   2.652
  929DOPC   PO410406   0.399  10.414   3.062
  929DOPC   GL110407   0.239  10.474   3.522
  929DOPC   GL210408   0.369  10.474   3.762
  929DOPC   C1A10409   0.109  10.114   3.832
  929DOPC   D2A10410   0.289   9.764   3.892
  929DOPC   C3A10411   0.669   9.604   4.182
  929DOPC   C4A10412   0.649   9.394   4.552
  929DOPC   C1B10413   0.429  10.624   4.202
  929DOPC   D2B10414   0.359  10.924   4.632
  929DOPC   C3B10415   0.219  10.794   5.062
  929DOPC   C4B10416   0.359  10.514   5.282
  930DOPC   NC310417   2.439  10.624   7.092
  930DOPC   PO410418   2.039  10.644   7.022
  930DOPC   GL110419   2.099  10.604   6.652
  930DOPC   GL210420   2.239  10.934   6.612
  930DOPC   C1A10421   2.059  10.384   6.172
  930DOPC   D2A10422   2.249  10.524   5.772
  930DOPC   C3A10423   1.969  10.534   5.472
  930DOPC   C4A10424   1.709  10.414   5.192
  930DOPC   C1B10425   2.339  10.894   6.222
  930DOPC   D2B10426   2.519  10.934   5.812
  930DOPC   C3B10427   2.349  10.864   5.352
  930DOPC   C4B10428   2.189  10.644   4.952
  931DOPC   NC310429  10.649  24.511   8.212
  931DOPC   PO410430  10.709  24.901   8.222
  931DOPC   GL110431  10.879  24.961   7.792
  931DOPC   GL210432  11.029  25.201   7.882
  931DOPC   C1A10433  10.989  25.131   7.302
  931DOPC   D2A10434  11.039  25.111   6.912
  931DOPC   C3A10435  11.419  25.301   6.772
  931DOPC   C4A10436  11.579  25.041   6.372
  931DOPC   C1B10437  11.249  25.411   7.602
  931DOPC   D2B10438  11.229  25.631   7.222
  931DOPC   C3B10439  11.059  25.771   6.832
  931DOPC   C4B10440  10.889  26.111   6.672
  932DOPC   NC310441   4.429  15.704   7.702
  932DOPC   PO410442   4.219  16.104   7.512
  932DOPC   GL110443   3.979  16.234   7.182
  932DOPC   GL210444   3.719  15.924   7.242
  932DOPC   C1A10445   3.829  16.264   6.772
  932DOPC   D2A10446   3.809  16.474   6.372
  932DOPC   C3A10447   4.129  16.674   6.242
  932DOPC   C4A10448   4.549  16.924   6.352
  932DOPC   C1B10449   3.399  15.964   6.822
  932DOPC   D2B10450   3.229  16.224   6.692
  932DOPC   C3B10451   3.249  16.144   6.242
  932DOPC   C4B10452   3.579  16.264   5.892
  933DOPC   NC310453  17.609  11.294   3.872
  933DOPC   PO410454  17.469  11.584   4.122
  933DOPC   GL110455  17.579  11.464   4.592
  933DOPC   GL210456  17.859  11.584   4.712
  933DOPC   C1A10457  17.449  11.554   4.982
  933DOPC   D2A10458  17.109  11.484   5.242
  933DOPC   C3A10459  17.139  11.244   5.732
  933DOPC   C4A10460  17.389  11.214   6.132
  933DOPC   C1B10461  18.009  11.504   5.162
  933DOPC   D2B10462  18.169  11.264   5.462
  933DOPC   C3B10463  18.199  10.794   5.722
  933DOPC   C4B10464  18.019  10.494   5.962
  934DOPC   NC310465  14.609  22.531   8.612
  934DOPC   PO410466  14.609  22.431   8.142
  934DOPC   GL110467  14.559  22.201   7.732
  934DOPC   GL210468  14.309  22.411   7.502
  934DOPC   C1A10469  14.649  22.041   7.332
  934DOPC   D2A10470  14.649  21.831   6.842
  934DOPC   C3A10471  14.809  22.091   6.452
  934DOPC   C4A10472  14.659  22.001   5.992
  934DOPC   C1B10473  14.179  22.131   7.202
  934DOPC   D2B10474  14.109  21.831   6.892
  934DOPC   C3B10475  14.289  21.911   6.462
  934DOPC   C4B10476  14.139  21.971   6.092
  935DOPC   NC310477  25.129  11.934   7.932
  935DOPC   PO410478  25.419  12.344   7.912
  935DOPC   GL110479  25.639  12.384   7.572
  935DOPC   GL210480  25.756  12.094   7.302
  935DOPC   C1A10481  25.449  12.424   7.112
  935DOPC   D2A10482  25.279  12.304   6.802
  935DOPC   C3A10483  24.909  12.224   6.672
  935DOPC   C4A10484  24.569  12.404   6.652
  935DOPC   C1B10485  25.816  12.264   6.892
  935DOPC   D2B10486  25.776  12.164   6.552
  935DOPC   C3B10487  25.876  12.404   6.182
  935DOPC   C4B10488  25.686  12.744   6.072
  936DOPC   NC310489   3.359  24.781   4.092
  936DOPC   PO410490   3.189  25.001   3.762
  936DOPC   GL110491   3.019  25.161   4.172
  936DOPC   GL210492   2.869  24.851   4.242
  936DOPC   C1A10493   2.799  25.641   4.232
  936DOPC   D2A10494   2.979  25.951   4.102
  936DOPC   C3A10495   3.319  26.201   4.402
  936DOPC   C4A10496   3.339  26.631   4.512
  936DOPC   C1B10497   2.929  24.591   4.662
  936DOPC   D2B10498   2.869  24.351   5.092
  936DOPC   C3B10499   2.899  23.791   5.312
  936DOPC   C4B10500   2.729  23.501   5.562
  937DOPC   NC310501   4.689  10.604   3.112
  937DOPC   PO410502   4.639  11.004   3.322
  937DOPC   GL110503   4.449  11.014   3.792
  937DOPC   GL210504   4.339  10.784   3.932
  937DOPC   C1A10505   4.559  11.084   4.302
  937DOPC   D2A10506   4.949  11.124   4.532
  937DOPC   C3A10507   4.949  11.464   4.792
  937DOPC   C4A10508   4.919  11.624   5.132
  937DOPC   C1B10509   4.099  10.864   4.292
  937DOPC   D2B10510   3.979  11.194   4.522
  937DOPC   C3B10511   4.109  11.314   4.932
  937DOPC   C4B10512   3.969  11.444   5.342
  938DOPC   NC310513  14.459  25.681   8.082
  938DOPC   PO410514  14.199  25.461   7.842
  938DOPC   GL110515  14.329  25.581   7.462
  938DOPC   GL210516  14.089  25.821   7.242
  938DOPC   C1A10517  14.299  25.521   6.962
  938DOPC   D2A10518  14.099  25.611   6.502
  938DOPC   C3A10519  14.079  25.421   6.142
  938DOPC   C4A10520  14.279  25.181   5.852
  938DOPC   C1B10521  13.779  25.651   6.902
  938DOPC   D2B10522  13.459  25.761   6.672
  938DOPC   C3B10523  13.069  25.651   6.782
  938DOPC   C4B10524  12.659  25.641   6.682
  939DOPC   NC310525  24.529   8.744   7.102
  939DOPC   PO410526  24.489   8.294   7.142
  939DOPC   GL110527  24.279   8.544   6.702
  939DOPC   GL210528  24.119   8.314   6.462
  939DOPC   C1A10529  23.989   8.884   6.392
  939DOPC   D2A10530  24.269   9.094   6.052
  939DOPC   C3A10531  24.379   8.924   5.602
  939DOPC   C4A10532  24.319   9.224   5.262
  939DOPC   C1B10533  24.239   8.484   6.122
  939DOPC   D2B10534  23.929   8.764   5.882
  939DOPC   C3B10535  23.879   8.924   5.492
  939DOPC   C4B10536  23.519   9.294   5.362
  940DOPC   NC310537  19.829   8.574   7.822
  940DOPC   PO410538  19.889   9.074   7.772
  940DOPC   GL110539  20.019   9.184   7.322
  940DOPC   GL210540  20.259   9.514   7.082
  940DOPC   C1A10541  19.789   9.274   6.872
  940DOPC   D2A10542  19.849   9.034   6.502
  940DOPC   C3A10543  19.689   9.064   6.102
  940DOPC   C4A10544  19.489   8.814   5.662
  940DOPC   C1B10545  20.039   9.574   6.632
  940DOPC   D2B10546  19.789   9.574   6.302
  940DOPC   C3B10547  19.599   9.924   6.082
  940DOPC   C4B10548  19.409  10.264   5.772
  941DOPC   NC310549  23.759  10.664   7.702
  941DOPC   PO410550  24.209  10.734   7.512
  941DOPC   GL110551  24.159  10.754   7.212
  941DOPC   GL210552  24.279  10.474   7.042
  941DOPC   C1A10553  24.199  11.164   6.952
  941DOPC   D2A10554  24.189  11.364   6.552
  941DOPC   C3A10555  24.559  11.454   6.322
  941DOPC   C4A10556  24.909  11.644   6.312
  941DOPC   C1B10557  24.349  10.744   6.722
  941DOPC   D2B10558  24.549  10.954   6.432
  941DOPC   C3B10559  24.329  11.044   6.132
  941DOPC   C4B10560  24.249  11.464   5.932
  942DOPC   NC310561   0.999  22.051   3.912
  942DOPC   PO410562   1.249  21.961   4.312
  942DOPC   GL110563   1.299  22.041   4.742
  942DOPC   GL210564   1.399  22.341   4.612
  942DOPC   C1A10565   1.149  22.091   5.152
  942DOPC   D2A10566   1.049  21.941   5.672
  942DOPC   C3A10567   0.709  22.231   5.732
  942DOPC   C4A10568   0.529  22.441   5.392
  942DOPC   C1B10569   1.359  22.511   5.062
  942DOPC   D2B10570   1.619  22.771   5.312
  942DOPC   C3B10571   1.499  22.831   5.762
  942DOPC   C4B10572   1.559  23.051   6.092
  943DOPC   NC310573  18.789  20.074   3.112
  943DOPC   PO410574  18.439  20.284   3.252
  943DOPC   GL110575  18.639  20.084   3.672
  943DOPC   GL210576  18.549  19.814   3.742
  943DOPC   C1A10577  18.529  20.134   4.142
  943DOPC   D2A10578  18.479  19.924   4.582
  943DOPC   C3A10579  18.769  19.844   4.942
  943DOPC   C4A10580  18.599  19.684   5.362
  943DOPC   C1B10581  18.229  19.724   4.112
  943DOPC   D2B10582  18.029  19.894   4.422
  943DOPC   C3B10583  18.109  19.804   4.872
  943DOPC   C4B10584  18.299  20.124   5.162
  944DOPC   NC310585   5.059   8.534   7.182
  944DOPC   PO410586   5.119   8.134   6.862
  944DOPC   GL110587   5.149   8.104   6.422
  944DOPC   GL210588   5.129   7.774   6.242
  944DOPC   C1A10589   5.409   8.244   6.102
  944DOPC   D2A10590   5.329   8.274   5.692
  944DOPC   C3A10591   5.759   8.144   5.552
  944DOPC   C4A10592   6.089   8.164   5.202
  944DOPC   C1B10593   5.279   7.814   5.872
  944DOPC   D2B10594   5.439   7.794   5.432
  944DOPC   C3B10595   5.619   7.974   5.102
  944DOPC   C4B10596   5.639   8.244   4.722
  945DOPC   NC310597   5.329  10.614   7.282
  945DOPC   PO410598   5.779  10.734   7.492
  945DOPC   GL110599   5.739  10.674   7.002
  945DOPC   GL210600   5.909  10.794   6.732
  945DOPC   C1A10601   5.539  10.564   6.602
  945DOPC   D2A10602   5.639  10.614   6.152
  945DOPC   C3A10603   6.079  10.434   5.972
  945DOPC   C4A10604   6.539  10.394   5.902
  945DOPC   C1B10605   6.229  10.784   6.402
  945DOPC   D2B10606   6.469  11.094   6.222
  945DOPC   C3B10607   6.469  11.354   5.892
  945DOPC   C4B10608   6.659  11.694   5.602
  946DOPC   NC310609  17.259  15.384   8.192
  946DOPC   PO410610  16.859  15.644   8.182
  946DOPC   GL110611  16.999  15.514   7.702
  946DOPC   GL210612  17.129  15.744   7.422
  946DOPC   C1A10613  16.859  15.324   7.292
  946DOPC   D2A10614  16.669  15.334   6.892
  946DOPC   C3A10615  16.979  15.214   6.502
  946DOPC   C4A10616  16.809  15.144   6.112
  946DOPC   C1B10617  16.819  15.744   7.072
  946DOPC   D2B10618  16.439  15.944   7.082
  946DOPC   C3B10619  16.209  16.174   7.422
  946DOPC   C4B10620  15.879  16.334   7.432
  947DOPC   NC310621   2.369  19.774   7.502
  947DOPC   PO410622   2.029  20.044   7.492
  947DOPC   GL110623   1.889  20.084   7.052
  947DOPC   GL210624   1.659  19.794   6.962
  947DOPC   C1A10625   1.979  20.334   6.702
  947DOPC   D2A10626   2.079  20.754   6.492
  947DOPC   C3A10627   1.799  21.094   6.332
  947DOPC   C4A10628   1.389  21.294   6.342
  947DOPC   C1B10629   1.689  19.954   6.592
  947DOPC   D2B10630   1.739  19.984   6.222
  947DOPC   C3B10631   1.439  19.984   5.922
  947DOPC   C4B10632   1.089  20.054   5.582
  948DOPC   NC310633   0.829   5.584   6.592
  948DOPC   PO410634   1.259   5.614   6.802
  948DOPC   GL110635   1.509   5.914   6.372
  948DOPC   GL210636   1.229   6.024   6.202
  948DOPC   C1A10637   1.779   6.154   6.032
  948DOPC   D2A10638   1.869   6.504   5.762
  948DOPC   C3A10639   1.599   6.614   5.422
  948DOPC   C4A10640   1.529   6.944   5.222
  948DOPC   C1B10641   1.289   6.224   5.842
  948DOPC   D2B10642   1.519   6.134   5.542
  948DOPC   C3B10643   1.369   6.404   5.102
  948DOPC   C4B10644   1.079   6.684   5.172
  949DOPC   NC310645   0.429  24.001   3.332
  949DOPC   PO410646   0.659  23.921   3.732
  949DOPC   GL110647   0.859  23.971   4.172
  949DOPC   GL210648   0.769  24.241   4.352
  949DOPC   C1A10649   0.779  23.591   4.432
  949DOPC   D2A10650   0.619  23.731   4.922
  949DOPC   C3A10651   0.349  23.821   5.222
  949DOPC   C4A10652   0.149  23.651   5.452
  949DOPC   C1B10653   0.779  24.621   4.652
  949DOPC   D2B10654   0.769  24.671   5.082
  949DOPC   C3B10655   0.349  24.571   5.332
  949DOPC   C4B10656   0.159  24.331   5.522
  950DOPC   NC310657  23.359  14.034   7.562
  950DOPC   PO410658  23.019  14.254   7.642
  950DOPC   GL110659  22.979  14.244   7.232
  950DOPC   GL210660  23.279  14.344   6.992
  950DOPC   C1A10661  22.769  14.244   6.912
  950DOPC   D2A10662  22.679  14.504   6.512
  950DOPC   C3A10663  22.909  14.994   6.412
  950DOPC   C4A10664  23.019  15.334   6.722
  950DOPC   C1B10665  23.659  14.514   6.722
  950DOPC   D2B10666  23.909  14.624   6.412
  950DOPC   C3B10667  23.859  14.544   6.042
  950DOPC   C4B10668  23.979  14.504   5.662
  951DOPC   NC310669  17.909  14.244   3.982
  951DOPC   PO410670  17.529  14.054   4.112
  951DOPC   GL110671  17.539  14.344   4.452
  951DOPC   GL210672  17.299  14.334   4.622
  951DOPC   C1A10673  17.689  14.584   4.812
  951DOPC   D2A10674  17.789  14.904   5.122
  951DOPC   C3A10675  17.719  14.714   5.482
  951DOPC   C4A10676  17.949  14.464   5.802
  951DOPC   C1B10677  17.689  14.074   4.872
  951DOPC   D2B10678  17.899  13.884   5.152
  951DOPC   C3B10679  18.209  14.044   5.382
  951DOPC   C4B10680  18.509  14.304   5.492
  952DOPC   NC310681  14.319   6.684   8.192
  952DOPC   PO410682  14.309   7.114   8.372
  952DOPC   GL110683  14.369   7.144   7.962
  952DOPC   GL210684  14.349   7.564   7.872
  952DOPC   C1A10685  14.399   7.124   7.562
  952DOPC   D2A10686  14.199   7.104   7.032
  952DOPC   C3A10687  14.509   7.064   6.842
  952DOPC   C4A10688  14.569   6.954   6.312
  952DOPC   C1B10689  14.249   7.604   7.452
  952DOPC   D2B10690  13.989   7.534   7.122
  952DOPC   C3B10691  14.149   7.564   6.762
  952DOPC   C4B10692  14.089   7.224   6.482
  953DOPC   NC310693   2.099   6.334   6.802
  953DOPC   PO410694   2.119   6.654   6.422
  953DOPC   GL110695   2.209   6.854   6.012
  953DOPC   GL210696   2.349   6.634   5.932
  953DOPC   C1A10697   2.429   7.164   5.822
  953DOPC   D2A10698   2.219   7.354   5.572
  953DOPC   C3A10699   2.449   7.684   5.322
  953DOPC   C4A10700   2.599   8.014   5.242
  953DOPC   C1B10701   2.299   6.684   5.532
  953DOPC   D2B10702   2.449   6.634   5.102
  953DOPC   C3B10703   2.409   6.174   5.042
  953DOPC   C4B10704   2.179   5.864   5.022
  954DOPC   NC310705  11.679  24.121   8.132
  954DOPC   PO410706  11.789  24.461   8.132
  954DOPC   GL110707  11.639  24.871   8.022
  954DOPC   GL210708  11.419  24.861   7.712
  954DOPC   C1A10709  11.709  25.301   7.872
  954DOPC   D2A10710  12.059  25.551   7.812
  954DOPC   C3A10711  12.209  25.831   7.412
  954DOPC   C4A10712  12.319  25.911   6.932
  954DOPC   C1B10713  11.479  24.801   7.242
  954DOPC   D2B10714  11.549  24.801   6.822
  954DOPC   C3B10715  11.909  24.631   6.612
  954DOPC   C4B10716  12.189  24.381   6.392
  955DOPC   NC310717   9.539  15.444   8.442
  955DOPC   PO410718   9.569  15.094   8.732
  955DOPC   GL110719   9.789  14.824   8.392
  955DOPC   GL210720   9.879  14.524   8.532
  955DOPC   C1A10721   9.849  14.604   8.042
  955DOPC   D2A10722   9.649  14.304   7.642
  955DOPC   C3A10723   9.439  14.444   7.172
  955DOPC   C4A10724   9.339  14.704   6.982
  955DOPC   C1B10725  10.289  14.704   8.482
  955DOPC   D2B10726  10.649  14.594   8.262
  955DOPC   C3B10727  10.859  14.864   7.862
  955DOPC   C4B10728  11.019  15.084   7.532
  956DOPC   NC310729  15.009   4.704   8.182
  956DOPC   PO410730  15.219   4.274   8.152
  956DOPC   GL110731  14.989   4.324   7.782
  956DOPC   GL210732  15.189   4.124   7.562
  956DOPC   C1A10733  14.829   4.564   7.532
  956DOPC   D2A10734  14.909   4.784   7.182
  956DOPC   C3A10735  14.779   4.604   6.722
  956DOPC   C4A10736  14.579   4.794   6.292
  956DOPC   C1B10737  15.219   4.374   7.212
  956DOPC   D2B10738  15.379   4.824   7.052
  956DOPC   C3B10739  15.679   4.884   6.622
  956DOPC   C4B10740  16.039   5.014   6.412
  957DOPC   NC310741   4.769  12.964   7.112
  957DOPC   PO410742   4.279  12.854   7.072
  957DOPC   GL110743   4.029  12.904   6.722
  957DOPC   GL210744   3.889  13.174   6.652
  957DOPC   C1A10745   4.009  12.884   6.282
  957DOPC   D2A10746   3.799  13.154   6.042
  957DOPC   C3A10747   3.489  13.064   5.732
  957DOPC   C4A10748   3.219  13.364   5.662
  957DOPC   C1B10749   3.809  13.504   6.392
  957DOPC   D2B10750   3.529  13.554   6.002
  957DOPC   C3B10751   3.849  13.594   5.602
  957DOPC   C4B10752   3.839  13.284   5.252
  958DOPC   NC310753   0.699  18.514   7.962
  958DOPC   PO410754   0.639  18.714   7.532
  958DOPC   GL110755   0.599  18.744   7.122
  958DOPC   GL210756   0.299  18.664   7.042
  958DOPC   C1A10757   0.869  18.814   6.782
  958DOPC   D2A10758   0.949  18.584   6.422
  958DOPC   C3A10759   0.989  18.464   6.002
  958DOPC   C4A10760   1.299  18.444   5.772
  958DOPC   C1B10761   0.279  18.694   6.612
  958DOPC   D2B10762   0.399  19.014   6.362
  958DOPC   C3B10763   0.729  19.184   6.602
  958DOPC   C4B10764   0.929  19.454   6.742
  959DOPC   NC310765   1.509   8.834   7.192
  959DOPC   PO410766   1.269   8.774   6.832
  959DOPC   GL110767   1.149   8.784   6.362
  959DOPC   GL210768   0.929   8.574   6.142
  959DOPC   C1A10769   1.319   8.714   5.902
  959DOPC   D2A10770   1.299   8.944   5.442
  959DOPC   C3A10771   1.619   8.984   5.192
  959DOPC   C4A10772   1.929   9.294   5.012
  959DOPC   C1B10773   1.069   8.414   5.642
  959DOPC   D2B10774   1.079   8.554   5.202
  959DOPC   C3B10775   1.399   8.674   4.922
  959DOPC   C4B10776   1.439   8.714   4.502
  960DOPC   NC310777  12.959  21.721   8.372
  960DOPC   PO410778  12.729  21.304   8.322
  960DOPC   GL110779  12.469  21.531   8.112
  960DOPC   GL210780  12.439  21.791   8.232
  960DOPC   C1A10781  12.139  21.531   7.752
  960DOPC   D2A10782  11.689  21.421   7.692
  960DOPC   C3A10783  11.579  21.264   7.322
  960DOPC   C4A10784  11.579  20.874   6.962
  960DOPC   C1B10785  12.559  21.791   7.682
  960DOPC   D2B10786  12.849  21.901   7.282
  960DOPC   C3B10787  12.939  22.181   7.062
  960DOPC   C4B10788  12.729  22.561   7.082
  961DOPC   NC310789  13.709  20.444   4.212
  961DOPC   PO410790  13.639  20.914   4.162
  961DOPC   GL110791  13.859  20.914   4.602
  961DOPC   GL210792  13.699  20.944   4.842
  961DOPC   C1A10793  14.069  20.534   4.742
  961DOPC   D2A10794  14.299  20.324   5.062
  961DOPC   C3A10795  14.229  20.054   5.332
  961DOPC   C4A10796  14.069  19.854   5.722
  961DOPC   C1B10797  13.889  21.304   5.142
  961DOPC   D2B10798  14.199  21.631   5.272
  961DOPC   C3B10799  14.199  21.531   5.662
  961DOPC   C4B10800  14.109  21.471   6.162
  962DOPC   NC310801  24.679  17.054   7.512
  962DOPC   PO410802  24.519  16.574   7.602
  962DOPC   GL110803  24.529  16.664   7.192
  962DOPC   GL210804  24.469  16.974   7.042
  962DOPC   C1A10805  24.759  16.544   6.822
  962DOPC   D2A10806  25.129  16.524   6.692
  962DOPC   C3A10807  25.149  16.614   6.252
  962DOPC   C4A10808  25.259  16.714   5.822
  962DOPC   C1B10809  24.419  17.284   6.702
  962DOPC   D2B10810  24.199  17.314   6.262
  962DOPC   C3B10811  24.059  16.934   6.212
  962DOPC   C4B10812  24.159  16.604   6.062
  963DOPC   NC310813  22.199  19.914   7.792
  963DOPC   PO410814  22.489  19.654   7.722
  963DOPC   GL110815  22.509  19.464   7.332
  963DOPC   GL210816  22.679  19.644   7.132
  963DOPC   C1A10817  22.429  19.294   6.922
  963DOPC   D2A10818  22.509  19.564   6.642
  963DOPC   C3A10819  22.439  19.514   6.072
  963DOPC   C4A10820  22.409  19.654   5.702
  963DOPC   C1B10821  22.689  20.004   6.742
  963DOPC   D2B10822  22.389  20.004   6.282
  963DOPC   C3B10823  22.599  20.124   5.952
  963DOPC   C4B10824  22.719  20.024   5.592
  964DOPC   NC310825  22.979   8.174   7.022
  964DOPC   PO410826  23.239   7.824   7.262
  964DOPC   GL110827  23.209   7.534   6.922
  964DOPC   GL210828  23.449   7.284   6.922
  964DOPC   C1A10829  23.029   7.474   6.482
  964DOPC   D2A10830  22.959   7.794   6.252
  964DOPC   C3A10831  23.119   8.194   6.302
  964DOPC   C4A10832  23.039   8.564   6.072
  964DOPC   C1B10833  23.479   7.254   6.432
  964DOPC   D2B10834  23.289   7.474   5.962
  964DOPC   C3B10835  23.259   7.074   5.752
  964DOPC   C4B10836  23.199   7.214   5.372
  965DOPC   NC310837   9.109   1.914   7.962
  965DOPC   PO410838   9.509   1.744   7.722
  965DOPC   GL110839   9.289   1.824   7.462
  965DOPC   GL210840   9.019   1.804   7.182
  965DOPC   C1A10841   9.119   1.384   7.342
  965DOPC   D2A10842   8.949   1.234   6.992
  965DOPC   C3A10843   9.099   1.054   6.592
  965DOPC   C4A10844   9.059   0.774   6.192
  965DOPC   C1B10845   8.969   1.704   6.842
  965DOPC   D2B10846   8.729   1.864   6.502
  965DOPC   C3B10847   8.429   2.204   6.532
  965DOPC   C4B10848   8.239   2.094   6.192
  966DOPC   NC310849  23.489  11.524   7.422
  966DOPC   PO410850  23.669  11.124   7.572
  966DOPC   GL110851  23.719  11.174   7.042
  966DOPC   GL210852  23.809  11.434   6.962
  966DOPC   C1A10853  23.569  11.184   6.592
  966DOPC   D2A10854  23.429  11.304   6.082
  966DOPC   C3A10855  23.699  11.604   5.772
  966DOPC   C4A10856  23.909  11.474   5.482
  966DOPC   C1B10857  24.139  11.754   6.892
  966DOPC   D2B10858  24.459  11.774   6.662
  966DOPC   C3B10859  24.299  12.024   6.312
  966DOPC   C4B10860  24.489  12.314   6.092
  967DOPC   NC310861  10.339  11.044   4.782
  967DOPC   PO410862   9.929  11.124   4.662
  967DOPC   GL110863   9.679  11.214   5.082
  967DOPC   GL210864   9.799  11.074   5.282
  967DOPC   C1A10865   9.229  11.184   5.272
  967DOPC   D2A10866   9.069  11.334   5.672
  967DOPC   C3A10867   9.269  11.374   6.082
  967DOPC   C4A10868   9.489  11.744   5.982
  967DOPC   C1B10869   9.959  11.354   5.572
  967DOPC   D2B10870   9.829  11.434   6.012
  967DOPC   C3B10871   9.849  11.054   6.252
  967DOPC   C4B10872   9.809  11.114   6.732
  968DOPC   NC310873  12.559   7.094   8.022
  968DOPC   PO410874  12.949   6.714   8.082
  968DOPC   GL110875  12.729   6.694   7.722
  968DOPC   GL210876  12.559   6.984   7.582
  968DOPC   C1A10877  12.639   6.464   7.332
  968DOPC   D2A10878  12.389   6.324   7.022
  968DOPC   C3A10879  12.499   6.244   6.522
  968DOPC   C4A10880  12.699   6.384   6.142
  968DOPC   C1B10881  12.719   7.114   7.172
  968DOPC   D2B10882  12.879   7.154   6.712
  968DOPC   C3B10883  13.119   6.854   6.522
  968DOPC   C4B10884  13.299   6.624   6.182
  969DOPC   NC310885   4.549  24.571   8.012
  969DOPC   PO410886   4.869  24.771   7.672
  969DOPC   GL110887   4.689  24.971   7.292
  969DOPC   GL210888   4.649  25.311   7.162
  969DOPC   C1A10889   4.689  24.931   6.792
  969DOPC   D2A10890   4.719  24.811   6.402
  969DOPC   C3A10891   4.599  24.751   5.982
  969DOPC   C4A10892   4.309  25.061   5.762
  969DOPC   C1B10893   4.709  25.621   6.672
  969DOPC   D2B10894   4.629  25.851   6.262
  969DOPC   C3B10895   4.959  25.851   5.992
  969DOPC   C4B10896   5.369  25.911   5.892
  970DOPC   NC310897   7.419   4.464   7.342
  970DOPC   PO410898   7.179   4.854   7.472
  970DOPC   GL110899   7.239   4.794   7.032
  970DOPC   GL210900   7.429   4.474   6.852
  970DOPC   C1A10901   7.129   4.704   6.592
  970DOPC   D2A10902   7.159   4.834   6.152
  970DOPC   C3A10903   7.439   5.134   6.012
  970DOPC   C4A10904   7.289   5.584   5.792
  970DOPC   C1B10905   7.619   4.124   6.712
  970DOPC   D2B10906   7.949   3.784   6.692
  970DOPC   C3B10907   7.949   3.554   6.302
  970DOPC   C4B10908   7.949   3.664   5.862
  971DOPC   NC310909   4.369  10.364   7.552
  971DOPC   PO410910   4.729  10.384   7.212
  971DOPC   GL110911   4.789  10.704   6.932
  971DOPC   GL210912   5.039  10.724   6.642
  971DOPC   C1A10913   4.699  11.014   6.582
  971DOPC   D2A10914   4.579  10.974   6.162
  971DOPC   C3A10915   4.879  11.044   5.922
  971DOPC   C4A10916   5.119  11.304   5.612
  971DOPC   C1B10917   5.179  10.784   6.242
  971DOPC   D2B10918   5.179  10.384   5.982
  971DOPC   C3B10919   5.569  10.414   5.662
  971DOPC   C4B10920   5.719  10.624   5.322
  972DOPC   NC310921   1.179  22.561   7.442
  972DOPC   PO410922   1.489  22.791   7.322
  972DOPC   GL110923   1.669  22.921   7.092
  972DOPC   GL210924   1.569  23.141   6.942
  972DOPC   C1A10925   1.709  22.821   6.592
  972DOPC   D2A10926   1.859  22.551   6.312
  972DOPC   C3A10927   2.049  22.861   5.912
  972DOPC   C4A10928   2.389  23.241   5.932
  972DOPC   C1B10929   1.739  23.381   6.542
  972DOPC   D2B10930   1.919  23.371   6.112
  972DOPC   C3B10931   2.139  23.551   5.682
  972DOPC   C4B10932   2.269  23.711   5.252
  973DOPC   NC310933  14.309   3.244   4.232
  973DOPC   PO410934  13.819   3.184   4.292
  973DOPC   GL110935  13.989   3.064   4.572
  973DOPC   GL210936  13.909   2.704   4.732
  973DOPC   C1A10937  14.129   3.114   4.942
  973DOPC   D2A10938  13.999   2.854   5.342
  973DOPC   C3A10939  13.639   2.744   5.582
  973DOPC   C4A10940  13.399   2.604   5.972
  973DOPC   C1B10941  13.559   2.754   4.972
  973DOPC   D2B10942  13.159   2.654   5.272
  973DOPC   C3B10943  12.779   2.724   5.092
  973DOPC   C4B10944  12.339   2.624   5.042
  974DOPC   NC310945  24.769   9.744   7.412
  974DOPC   PO410946  24.919   9.494   7.042
  974DOPC   GL110947  25.089   9.774   6.772
  974DOPC   GL210948  25.009   9.604   6.532
  974DOPC   C1A10949  24.919  10.054   6.322
  974DOPC   D2A10950  24.829  10.054   5.882
  974DOPC   C3A10951  24.489  10.194   5.822
  974DOPC   C4A10952  24.319  10.134   5.462
  974DOPC   C1B10953  25.089   9.644   6.052
  974DOPC   D2B10954  25.229   9.754   5.692
  974DOPC   C3B10955  25.629   9.614   5.582
  974DOPC   C4B10956  26.036   9.694   5.592
  975DOPC   NC310957   7.089   1.694   3.692
  975DOPC   PO410958   7.509   1.744   3.792
  975DOPC   GL110959   7.519   1.614   4.162
  975DOPC   GL210960   7.449   1.364   4.322
  975DOPC   C1A10961   7.729   1.694   4.602
  975DOPC   D2A10962   7.889   1.894   5.012
  975DOPC   C3A10963   7.949   1.684   5.382
  975DOPC   C4A10964   8.009   1.754   5.912
  975DOPC   C1B10965   7.339   1.414   4.732
  975DOPC   D2B10966   7.499   1.534   5.092
  975DOPC   C3B10967   7.759   1.274   5.242
  975DOPC   C4B10968   8.149   1.164   5.302
  976DOPC   NC310969  19.719   9.724   7.722
  976DOPC   PO410970  19.269   9.694   7.752
  976DOPC   GL110971  19.269   9.734   7.292
  976DOPC   GL210972  19.049   9.524   7.232
  976DOPC   C1A10973  19.189  10.124   7.052
  976DOPC   D2A10974  18.989  10.114   6.692
  976DOPC   C3A10975  19.119  10.044   6.292
  976DOPC   C4A10976  18.869  10.214   5.902
  976DOPC   C1B10977  19.249   9.654   6.842
  976DOPC   D2B10978  19.629   9.894   6.682
  976DOPC   C3B10979  19.529  10.214   6.482
  976DOPC   C4B10980  19.719  10.614   6.402
  977DOPC   NC310981  25.379  21.194   3.672
  977DOPC   PO410982  25.656  20.984   4.012
  977DOPC   GL110983  25.726  20.964   4.362
  977DOPC   GL210984  25.529  21.164   4.552
  977DOPC   C1A10985  25.956  21.034   4.822
  977DOPC   D2A10986  25.736  21.154   5.052
  977DOPC   C3A10987  25.499  21.451   4.942
  977DOPC   C4A10988  25.229  21.901   4.822
  977DOPC   C1B10989  25.099  20.914   4.542
  977DOPC   D2B10990  24.809  20.754   4.542
  977DOPC   C3B10991  24.439  20.684   4.792
  977DOPC   C4B10992  24.069  20.514   4.932
  978DOPC   NC310993  14.959  10.154   8.992
  978DOPC   PO410994  14.869   9.974   8.512
  978DOPC   GL110995  14.919  10.034   8.092
  978DOPC   GL210996  14.739   9.734   8.032
  978DOPC   C1A10997  14.949  10.184   7.812
  978DOPC   D2A10998  14.899  10.444   7.422
  978DOPC   C3A10999  14.409  10.474   7.302
  978DOPC   C4A11000  14.039  10.504   7.212
  978DOPC   C1B11001  14.519   9.954   7.642
  978DOPC   D2B11002  14.639  10.054   7.132
  978DOPC   C3B11003  14.809  10.034   6.632
  978DOPC   C4B11004  14.969   9.924   6.272
  979DOPC   NC311005   4.449  15.254   7.432
  979DOPC   PO411006   4.819  15.404   7.552
  979DOPC   GL111007   4.879  15.374   7.192
  979DOPC   GL211008   5.089  15.104   7.242
  979DOPC   C1A11009   4.849  15.144   6.832
  979DOPC   D2A11010   4.839  15.254   6.332
  979DOPC   C3A11011   4.449  15.324   6.022
  979DOPC   C4A11012   4.039  15.644   5.742
  979DOPC   C1B11013   5.329  15.314   6.902
  979DOPC   D2B11014   5.579  15.554   6.562
  979DOPC   C3B11015   5.699  15.304   6.202
  979DOPC   C4B11016   5.859  15.144   5.852
  980DOPC   NC311017   9.099   7.424   4.362
  980DOPC   PO411018   8.869   7.894   4.252
  980DOPC   GL111019   8.979   7.804   4.722
  980DOPC   GL211020   9.219   7.634   4.792
  980DOPC   C1A11021   8.979   7.844   5.132
  980DOPC   D2A11022   9.069   8.064   5.482
  980DOPC   C3A11023   8.779   8.394   5.442
  980DOPC   C4A11024   8.779   8.784   5.242
  980DOPC   C1B11025   9.449   7.784   5.172
  980DOPC   D2B11026   9.389   7.754   5.572
  980DOPC   C3B11027   9.499   7.844   5.862
  980DOPC   C4B11028   9.469   7.954   6.252
  981DOPC   NC311029  19.009  19.394   3.432
  981DOPC   PO411030  19.139  19.794   3.332
  981DOPC   GL111031  19.029  19.644   3.802
  981DOPC   GL211032  19.179  19.864   4.042
  981DOPC   C1A11033  18.739  19.644   4.182
  981DOPC   D2A11034  18.669  19.444   4.542
  981DOPC   C3A11035  18.849  19.164   4.772
  981DOPC   C4A11036  19.229  18.994   4.922
  981DOPC   C1B11037  19.119  19.794   4.502
  981DOPC   D2B11038  19.259  19.624   4.812
  981DOPC   C3B11039  19.249  19.714   5.232
  981DOPC   C4B11040  19.529  19.734   5.552
  982DOPC   NC311041   2.219  21.104   7.852
  982DOPC   PO411042   2.699  20.954   7.722
  982DOPC   GL111043   2.769  20.984   7.272
  982DOPC   GL211044   2.859  20.774   7.162
  982DOPC   C1A11045   2.909  21.304   7.062
  982DOPC   D2A11046   3.189  21.561   6.672
  982DOPC   C3A11047   3.019  21.294   6.332
  982DOPC   C4A11048   2.979  20.884   6.202
  982DOPC   C1B11049   2.889  20.874   6.742
  982DOPC   D2B11050   2.579  20.944   6.452
  982DOPC   C3B11051   2.419  21.264   6.442
  982DOPC   C4B11052   2.099  21.591   6.582
  983DOPC   NC311053  22.639   3.434   3.812
  983DOPC   PO411054  23.049   3.584   3.792
  983DOPC   GL111055  23.419   3.394   4.072
  983DOPC   GL211056  23.649   3.554   4.052
  983DOPC   C1A11057  23.419   3.364   4.512
  983DOPC   D2A11058  23.179   3.204   4.872
  983DOPC   C3A11059  22.789   3.254   5.182
  983DOPC   C4A11060  22.469   3.434   5.452
  983DOPC   C1B11061  23.729   3.744   4.452
  983DOPC   D2B11062  23.779   3.764   4.882
  983DOPC   C3B11063  24.139   3.704   5.282
  983DOPC   C4B11064  24.259   3.664   5.652
  984DOPC   NC311065  13.339   3.184   4.262
  984DOPC   PO411066  13.019   2.894   4.232
  984DOPC   GL111067  13.039   3.014   4.672
  984DOPC   GL211068  12.719   2.974   4.692
  984DOPC   C1A11069  13.199   3.154   5.012
  984DOPC   D2A11070  13.309   3.134   5.472
  984DOPC   C3A11071  13.419   3.484   5.682
  984DOPC   C4A11072  13.559   3.884   5.662
  984DOPC   C1B11073  12.539   3.194   5.072
  984DOPC   D2B11074  12.599   3.044   5.492
  984DOPC   C3B11075  12.589   3.064   5.932
  984DOPC   C4B11076  12.709   3.324   6.302
  985DOPC   NC311077   2.909  21.581  11.732
  985DOPC   PO411078   2.869  21.144  11.772
  985DOPC   GL111079   2.809  21.014  12.272
  985DOPC   GL211080   2.509  20.884  12.382
  985DOPC   C1A11081   2.989  20.784  12.612
  985DOPC   D2A11082   2.939  20.684  13.092
  985DOPC   C3A11083   2.999  20.754  13.602
  985DOPC   C4A11084   3.199  20.984  13.922
  985DOPC   C1B11085   2.509  21.024  12.792
  985DOPC   D2B11086   2.449  20.904  13.282
  985DOPC   C3B11087   2.579  20.584  13.432
  985DOPC   C4B11088   2.879  20.234  13.562
  986DOPC   NC311089  10.519  13.154   9.122
  986DOPC   PO411090  10.269  13.004   8.832
  986DOPC   GL111091  10.569  13.274   8.552
  986DOPC   GL211092  10.839  13.264   8.752
  986DOPC   C1A11093  10.929  13.474   8.362
  986DOPC   D2A11094  11.219  13.744   8.422
  986DOPC   C3A11095  11.369  13.724   8.082
  986DOPC   C4A11096  11.249  13.464   7.802
  986DOPC   C1B11097  11.019  13.044   8.402
  986DOPC   D2B11098  11.079  13.024   8.012
  986DOPC   C3B11099  10.759  13.094   7.762
  986DOPC   C4B11100  10.639  13.264   7.402
  987DOPC   NC311101  -0.549  20.174   7.792
  987DOPC   PO411102  -0.329  20.214   7.412
  987DOPC   GL111103  -0.049  20.064   6.982
  987DOPC   GL211104   0.229  19.954   7.042
  987DOPC   C1A11105   0.119  19.894   6.592
  987DOPC   D2A11106   0.059  19.924   6.182
  987DOPC   C3A11107   0.459  20.054   5.982
  987DOPC   C4A11108   0.619  20.024   5.552
  987DOPC   C1B11109   0.539  19.694   6.822
  987DOPC   D2B11110   0.449  19.614   6.372
  987DOPC   C3B11111   0.719  19.394   6.102
  987DOPC   C4B11112   0.839  18.974   6.142
  988DOPC   NC311113   7.659  12.354   7.632
  988DOPC   PO411114   7.879  12.674   7.832
  988DOPC   GL111115   8.009  12.504   7.352
  988DOPC   GL211116   8.059  12.824   7.152
  988DOPC   C1A11117   8.049  12.234   7.102
  988DOPC   D2A11118   8.329  12.284   6.722
  988DOPC   C3A11119   8.329  12.484   6.352
  988DOPC   C4A11120   8.399  12.514   5.882
  988DOPC   C1B11121   7.919  12.534   6.712
  988DOPC   D2B11122   7.879  12.314   6.362
  988DOPC   C3B11123   8.109  12.184   6.012
  988DOPC   C4B11124   8.079  11.964   5.632
  989DOPC   NC311125  10.409  16.744   9.082
  989DOPC   PO411126  10.399  17.044   8.732
  989DOPC   GL111127  10.599  16.944   8.292
  989DOPC   GL211128  10.939  16.994   8.422
  989DOPC   C1A11129  10.649  16.814   7.802
  989DOPC   D2A11130  10.959  16.504   7.572
  989DOPC   C3A11131  10.919  16.164   7.262
  989DOPC   C4A11132  11.029  15.894   6.982
  989DOPC   C1B11133  10.989  16.614   8.112
  989DOPC   D2B11134  11.129  16.194   8.152
  989DOPC   C3B11135  11.249  16.024   7.822
  989DOPC   C4B11136  11.149  15.624   7.562
  990DOPC   NC311137  10.759   6.814   8.072
  990DOPC   PO411138  11.259   7.064   7.932
  990DOPC   GL111139  11.409   7.364   7.602
  990DOPC   GL211140  11.489   7.644   7.812
  990DOPC   C1A11141  11.439   7.234   7.212
  990DOPC   D2A11142  11.259   6.954   6.892
  990DOPC   C3A11143  11.289   6.594   6.532
  990DOPC   C4A11144  11.589   6.194   6.462
  990DOPC   C1B11145  11.829   7.654   7.542
  990DOPC   D2B11146  11.989   7.844   7.152
  990DOPC   C3B11147  11.889   7.784   6.722
  990DOPC   C4B11148  11.989   7.464   6.462
  991DOPC   NC311149  13.389   6.934   7.942
  991DOPC   PO411150  13.039   7.164   7.812
  991DOPC   GL111151  13.089   7.284   7.462
  991DOPC   GL211152  13.369   7.174   7.412
  991DOPC   C1A11153  12.949   7.524   7.052
  991DOPC   D2A11154  12.909   7.744   6.672
  991DOPC   C3A11155  13.149   7.604   6.512
  991DOPC   C4A11156  13.449   7.354   6.302
  991DOPC   C1B11157  13.519   7.554   7.282
  991DOPC   D2B11158  13.669   7.814   6.952
  991DOPC   C3B11159  13.429   8.094   6.732
  991DOPC   C4B11160  13.069   8.304   6.752
  992DOPC   NC311161  22.469   4.324   7.832
  992DOPC   PO411162  22.049   4.364   7.492
  992DOPC   GL111163  21.989   4.264   7.042
  992DOPC   GL211164  21.889   4.454   6.842
  992DOPC   C1A11165  22.239   4.004   6.882
  992DOPC   D2A11166  22.059   3.694   6.572
  992DOPC   C3A11167  22.189   3.464   6.122
  992DOPC   C4A11168  22.059   3.074   6.122
  992DOPC   C1B11169  22.039   4.654   6.412
  992DOPC   D2B11170  22.239   4.964   6.042
  992DOPC   C3B11171  22.589   4.754   5.912
  992DOPC   C4B11172  22.939   4.984   5.952
  993DOPC   NC311173   6.069  20.294   8.212
  993DOPC   PO411174   6.019  20.704   8.132
  993DOPC   GL111175   5.799  20.684   7.692
  993DOPC   GL211176   5.509  20.604   7.442
  993DOPC   C1A11177   5.999  20.564   7.262
  993DOPC   D2A11178   6.269  20.214   7.132
  993DOPC   C3A11179   6.169  19.924   7.372
  993DOPC   C4A11180   6.329  19.774   7.692
  993DOPC   C1B11181   5.489  20.614   7.052
  993DOPC   D2B11182   5.529  20.764   6.712
  993DOPC   C3B11183   5.779  21.144   6.482
  993DOPC   C4B11184   5.839  21.244   6.152
  994DOPC   NC311185  18.229  11.904   8.082
  994DOPC   PO411186  18.289  12.314   8.002
  994DOPC   GL111187  18.089  12.454   7.612
  994DOPC   GL211188  18.269  12.434   7.412
  994DOPC   C1A11189  17.859  12.194   7.202
  994DOPC   D2A11190  17.829  12.314   6.782
  994DOPC   C3A11191  18.049  12.124   6.442
  994DOPC   C4A11192  18.259  12.144   6.072
  994DOPC   C1B11193  18.269  12.384   6.912
  994DOPC   D2B11194  18.179  12.594   6.502
  994DOPC   C3B11195  17.809  12.754   6.372
  994DOPC   C4B11196  17.429  12.704   6.552
  995DOPC   NC311197  13.489  12.644   5.592
  995DOPC   PO411198  13.499  12.534   5.152
  995DOPC   GL111199  13.729  12.184   5.492
  995DOPC   GL211200  13.689  12.274   5.872
  995DOPC   C1A11201  14.059  11.964   5.632
  995DOPC   D2A11202  14.129  12.014   6.052
  995DOPC   C3A11203  14.589  11.994   6.242
  995DOPC   C4A11204  14.679  11.824   6.692
  995DOPC   C1B11205  13.689  12.094   6.322
  995DOPC   D2B11206  13.729  12.004   6.692
  995DOPC   C3B11207  13.889  11.644   6.872
  995DOPC   C4B11208  13.989  11.524   7.282
  996DOPC   NC311209  24.839  13.664   3.582
  996DOPC   PO411210  24.739  14.084   3.652
  996DOPC   GL111211  25.079  14.124   4.002
  996DOPC   GL211212  25.039  13.774   3.992
  996DOPC   C1A11213  25.299  14.014   4.332
  996DOPC   D2A11214  25.149  14.164   4.772
  996DOPC   C3A11215  25.189  13.884   5.222
  996DOPC   C4A11216  25.289  13.924   5.692
  996DOPC   C1B11217  24.969  13.594   4.362
  996DOPC   D2B11218  24.829  13.284   4.652
  996DOPC   C3B11219  24.619  13.194   5.052
  996DOPC   C4B11220  24.569  13.164   5.462
  997DOPC   NC311221  24.509  23.991   8.232
  997DOPC   PO411222  24.689  23.641   7.982
  997DOPC   GL111223  24.829  23.511   7.582
  997DOPC   GL211224  25.069  23.781   7.392
  997DOPC   C1A11225  24.739  23.411   7.152
  997DOPC   D2A11226  24.889  23.561   6.752
  997DOPC   C3A11227  24.679  23.601   6.352
  997DOPC   C4A11228  24.609  23.551   6.002
  997DOPC   C1B11229  25.249  23.831   7.012
  997DOPC   D2B11230  25.309  23.771   6.562
  997DOPC   C3B11231  25.259  23.931   6.112
  997DOPC   C4B11232  25.469  24.041   5.832
  998DOPC   NC311233  13.569  21.551   8.152
  998DOPC   PO411234  13.299  21.344   8.272
  998DOPC   GL111235  13.029  21.401   7.932
  998DOPC   GL211236  13.069  21.681   7.872
  998DOPC   C1A11237  12.919  21.431   7.462
  998DOPC   D2A11238  12.829  21.451   7.022
  998DOPC   C3A11239  12.829  21.821   6.702
  998DOPC   C4A11240  12.719  21.951   6.262
  998DOPC   C1B11241  13.279  21.781   7.482
  998DOPC   D2B11242  13.309  21.751   7.012
  998DOPC   C3B11243  13.629  21.671   6.762
  998DOPC   C4B11244  13.819  21.761   6.402
  999DOPC   NC311245  25.349  16.194   3.782
  999DOPC   PO411246  25.009  16.314   4.052
  999DOPC   GL111247  25.009  16.274   4.482
  999DOPC   GL211248  24.649  16.124   4.482
  999DOPC   C1A11249  24.979  16.084   4.982
  999DOPC   D2A11250  25.019  15.684   5.212
  999DOPC   C3A11251  24.919  15.624   5.692
  999DOPC   C4A11252  25.079  15.894   6.002
  999DOPC   C1B11253  24.459  16.184   4.892
  999DOPC   D2B11254  24.579  16.304   5.252
  999DOPC   C3B11255  24.239  16.724   5.442
  999DOPC   C4B11256  23.889  16.624   5.622
 1000DOPC   NC311257  12.899   7.614   4.472
 1000DOPC   PO411258  12.719   7.384   4.762
 1000DOPC   GL111259  12.739   7.194   5.132
 1000DOPC   GL211260  13.079   7.084   5.142
 1000DOPC   C1A11261  12.729   6.834   5.352
 1000DOPC   D2A11262  12.499   6.534   5.382
 1000DOPC   C3A11263  12.249   6.464   5.632
 1000DOPC   C4A11264  12.159   6.634   6.012
 1000DOPC   C1B11265  13.199   6.854   5.422
 1000DOPC   D2B11266  13.239   6.894   5.792
 1000DOPC   C3B11267  13.619   7.104   5.882
 1000DOPC   C4B11268  13.819   7.464   6.012
 1001DOPC   NC311269  11.279  13.034   5.432
 1001DOPC   PO411270  11.589  12.754   5.312
 1001DOPC   GL111271  11.689  12.964   5.742
 1001DOPC   GL211272  11.599  13.294   5.942
 1001DOPC   C1A11273  11.879  12.894   6.162
 1001DOPC   D2A11274  11.749  12.464   6.212
 1001DOPC   C3A11275  11.469  12.394   6.572
 1001DOPC   C4A11276  11.199  12.404   6.892
 1001DOPC   C1B11277  11.339  13.284   6.292
 1001DOPC   D2B11278  11.019  13.174   6.552
 1001DOPC   C3B11279  10.969  12.724   6.532
 1001DOPC   C4B11280  10.959  12.334   6.412
 1002DOPC   NC311281  15.339   2.144   4.102
 1002DOPC   PO411282  15.029   2.014   4.422
 1002DOPC   GL111283  15.229   2.164   4.812
 1002DOPC   GL211284  15.569   2.214   4.892
 1002DOPC   C1A11285  15.189   1.924   5.192
 1002DOPC   D2A11286  15.299   1.624   5.592
 1002DOPC   C3A11287  15.589   1.714   5.942
 1002DOPC   C4A11288  15.749   2.004   6.172
 1002DOPC   C1B11289  16.009   2.414   4.922
 1002DOPC   D2B11290  16.429   2.384   5.172
 1002DOPC   C3B11291  16.489   2.324   5.552
 1002DOPC   C4B11292  16.369   2.234   5.972
 1003DOPC   NC311293  20.549   1.604   7.882
 1003DOPC   PO411294  20.889   1.384   7.602
 1003DOPC   GL111295  21.149   1.294   7.252
 1003DOPC   GL211296  21.339   1.494   7.142
 1003DOPC   C1A11297  21.319   1.024   6.842
 1003DOPC   D2A11298  21.389   1.154   6.332
 1003DOPC   C3A11299  21.159   1.034   6.092
 1003DOPC   C4A11300  20.949   1.334   5.722
 1003DOPC   C1B11301  21.399   1.544   6.662
 1003DOPC   D2B11302  21.229   1.804   6.322
 1003DOPC   C3B11303  20.869   1.854   6.412
 1003DOPC   C4B11304  20.789   2.084   6.842
 1004DOPC   NC311305  23.219  14.894   7.732
 1004DOPC   PO411306  23.519  15.104   7.442
 1004DOPC   GL111307  23.479  15.314   7.102
 1004DOPC   GL211308  23.419  15.624   7.022
 1004DOPC   C1A11309  23.439  15.174   6.602
 1004DOPC   D2A11310  23.709  15.184   6.342
 1004DOPC   C3A11311  23.699  15.054   5.962
 1004DOPC   C4A11312  23.739  15.054   5.532
 1004DOPC   C1B11313  23.359  15.714   6.612
 1004DOPC   D2B11314  23.289  15.604   6.192
 1004DOPC   C3B11315  22.909  15.504   5.932
 1004DOPC   C4B11316  22.729  15.894   5.692
 1005DOPC   NC311317   8.199  13.184   8.592
 1005DOPC   PO411318   8.579  13.364   8.302
 1005DOPC   GL111319   8.699  13.384   7.902
 1005DOPC   GL211320   8.319  13.374   7.832
 1005DOPC   C1A11321   8.939  13.164   7.632
 1005DOPC   D2A11322   9.229  13.064   7.272
 1005DOPC   C3A11323   9.369  13.354   7.022
 1005DOPC   C4A11324   9.589  13.694   6.732
 1005DOPC   C1B11325   8.419  13.534   7.502
 1005DOPC   D2B11326   8.379  13.814   7.172
 1005DOPC   C3B11327   8.189  13.884   6.802
 1005DOPC   C4B11328   8.149  13.674   6.492
 1006DOPC   NC311329  15.539  16.294   4.392
 1006DOPC   PO411330  15.309  16.514   4.802
 1006DOPC   GL111331  15.459  16.674   5.202
 1006DOPC   GL211332  15.139  16.844   5.172
 1006DOPC   C1A11333  15.339  16.624   5.702
 1006DOPC   D2A11334  15.219  16.764   6.082
 1006DOPC   C3A11335  15.399  17.134   6.142
 1006DOPC   C4A11336  15.329  17.454   5.892
 1006DOPC   C1B11337  15.519  17.134   5.392
 1006DOPC   D2B11338  15.769  17.074   5.722
 1006DOPC   C3B11339  16.059  17.024   6.002
 1006DOPC   C4B11340  16.439  17.044   6.262
 1007DOPC   NC311341  14.299   5.714   8.192
 1007DOPC   PO411342  14.239   6.144   8.392
 1007DOPC   GL111343  14.299   6.154   7.922
 1007DOPC   GL211344  14.039   5.944   7.842
 1007DOPC   C1A11345  14.359   6.164   7.482
 1007DOPC   D2A11346  14.539   6.004   7.102
 1007DOPC   C3A11347  14.239   5.894   6.792
 1007DOPC   C4A11348  14.199   5.674   6.422
 1007DOPC   C1B11349  13.909   6.174   7.492
 1007DOPC   D2B11350  13.999   6.144   7.102
 1007DOPC   C3B11351  14.009   6.384   6.812
 1007DOPC   C4B11352  14.109   6.744   6.602
 1008DOPC   NC311353   9.389  19.054   4.652
 1008DOPC   PO411354   9.229  19.474   4.412
 1008DOPC   GL111355   9.109  19.574   4.812
 1008DOPC   GL211356   8.849  19.744   4.942
 1008DOPC   C1A11357   9.389  19.564   5.152
 1008DOPC   D2A11358   9.749  19.784   5.372
 1008DOPC   C3A11359   9.789  19.954   5.692
 1008DOPC   C4A11360   9.649  20.254   6.052
 1008DOPC   C1B11361   8.909  19.654   5.302
 1008DOPC   D2B11362   8.739  19.374   5.602
 1008DOPC   C3B11363   8.999  19.114   5.792
 1008DOPC   C4B11364   8.949  18.904   6.152
 1009DOPC   NC311365   3.239  19.694   7.732
 1009DOPC   PO411366   2.839  19.394   7.842
 1009DOPC   GL111367   2.769  19.514   7.422
 1009DOPC   GL211368   3.169  19.694   7.242
 1009DOPC   C1A11369   2.669  19.394   7.012
 1009DOPC   D2A11370   2.539  19.434   6.732
 1009DOPC   C3A11371   2.649  19.604   6.392
 1009DOPC   C4A11372   2.599  19.464   5.992
 1009DOPC   C1B11373   3.019  19.744   6.852
 1009DOPC   D2B11374   2.829  20.064   6.572
 1009DOPC   C3B11375   2.839  19.974   6.142
 1009DOPC   C4B11376   2.559  20.124   5.832
 1010DOPC   NC311377  19.609   7.694   3.642
 1010DOPC   PO411378  19.229   7.884   3.932
 1010DOPC   GL111379  19.069   7.754   4.322
 1010DOPC   GL211380  18.829   7.434   4.272
 1010DOPC   C1A11381  18.909   7.794   4.682
 1010DOPC   D2A11382  18.929   7.884   5.052
 1010DOPC   C3A11383  19.279   7.834   5.162
 1010DOPC   C4A11384  19.479   7.684   5.572
 1010DOPC   C1B11385  18.799   7.284   4.662
 1010DOPC   D2B11386  18.619   7.494   5.062
 1010DOPC   C3B11387  18.119   7.574   5.072
 1010DOPC   C4B11388  17.859   7.394   4.852
 1011DOPC   NC311389  11.109  18.774   8.972
 1011DOPC   PO411390  10.939  18.774   8.632
 1011DOPC   GL111391  11.059  18.974   8.352
 1011DOPC   GL211392  11.309  18.734   8.212
 1011DOPC   C1A11393  11.079  19.024   7.852
 1011DOPC   D2A11394  11.179  19.014   7.432
 1011DOPC   C3A11395  10.799  19.124   7.172
 1011DOPC   C4A11396  10.679  19.604   7.252
 1011DOPC   C1B11397  11.469  18.704   7.812
 1011DOPC   D2B11398  11.649  18.724   7.392
 1011DOPC   C3B11399  11.349  18.644   7.082
 1011DOPC   C4B11400  11.439  18.324   6.822
 1012DOPC   NC311401  23.789   5.784   3.322
 1012DOPC   PO411402  23.829   5.994   3.652
 1012DOPC   GL111403  23.749   5.974   4.142
 1012DOPC   GL211404  23.779   6.264   4.352
 1012DOPC   C1A11405  23.949   5.754   4.452
 1012DOPC   D2A11406  24.299   5.584   4.732
 1012DOPC   C3A11407  24.389   5.814   4.982
 1012DOPC   C4A11408  24.319   6.234   5.142
 1012DOPC   C1B11409  23.799   6.144   4.732
 1012DOPC   D2B11410  23.889   5.804   4.902
 1012DOPC   C3B11411  23.999   5.874   5.352
 1012DOPC   C4B11412  23.859   5.794   5.822
 1013DOPC   NC311413  18.199  10.674   3.552
 1013DOPC   PO411414  18.559  10.734   3.922
 1013DOPC   GL111415  18.509  10.714   4.352
 1013DOPC   GL211416  18.879  10.814   4.522
 1013DOPC   C1A11417  18.349  10.694   4.662
 1013DOPC   D2A11418  18.429  10.444   4.982
 1013DOPC   C3A11419  18.399  10.434   5.452
 1013DOPC   C4A11420  18.349  10.164   5.802
 1013DOPC   C1B11421  18.969  10.554   4.892
 1013DOPC   D2B11422  18.889  10.394   5.262
 1013DOPC   C3B11423  19.099  10.584   5.522
 1013DOPC   C4B11424  19.459  10.964   5.372
 1014DOPC   NC311425  10.589   9.954   4.492
 1014DOPC   PO411426  10.899   9.904   4.652
 1014DOPC   GL111427  10.579   9.934   4.952
 1014DOPC   GL211428  10.779  10.014   5.192
 1014DOPC   C1A11429  10.429   9.654   5.342
 1014DOPC   D2A11430  10.149   9.474   5.612
 1014DOPC   C3A11431  10.239   9.204   5.932
 1014DOPC   C4A11432  10.229   9.044   6.322
 1014DOPC   C1B11433  10.909   9.774   5.492
 1014DOPC   D2B11434  11.169   9.594   5.762
 1014DOPC   C3B11435  10.969   9.484   6.112
 1014DOPC   C4B11436  10.849   9.464   6.502
 1015DOPC   NC311437   4.129  17.014   3.602
 1015DOPC   PO411438   3.979  16.654   3.812
 1015DOPC   GL111439   3.759  16.704   4.172
 1015DOPC   GL211440   3.429  16.604   4.162
 1015DOPC   C1A11441   3.509  16.864   4.592
 1015DOPC   D2A11442   3.339  17.034   5.062
 1015DOPC   C3A11443   2.979  16.894   5.362
 1015DOPC   C4A11444   2.649  16.964   5.552
 1015DOPC   C1B11445   3.119  16.564   4.522
 1015DOPC   D2B11446   3.209  16.504   4.962
 1015DOPC   C3B11447   3.679  16.664   5.052
 1015DOPC   C4B11448   4.139  16.774   4.942
 1016DOPC   NC311449   1.309  10.154   7.412
 1016DOPC   PO411450   1.179  10.624   7.282
 1016DOPC   GL111451   1.389  10.734   6.812
 1016DOPC   GL211452   1.219  10.914   6.622
 1016DOPC   C1A11453   1.649  10.694   6.422
 1016DOPC   D2A11454   1.339  10.814   6.122
 1016DOPC   C3A11455   1.539  11.104   6.012
 1016DOPC   C4A11456   1.789  11.494   5.932
 1016DOPC   C1B11457   1.479  11.334   6.612
 1016DOPC   D2B11458   1.779  11.634   6.522
 1016DOPC   C3B11459   1.769  11.954   6.312
 1016DOPC   C4B11460   1.979  12.374   6.562
 1017DOPC   NC311461  14.159  14.794   5.162
 1017DOPC   PO411462  14.589  14.554   5.122
 1017DOPC   GL111463  14.569  14.734   5.502
 1017DOPC   GL211464  14.509  15.044   5.412
 1017DOPC   C1A11465  14.629  14.574   5.882
 1017DOPC   D2A11466  14.949  14.584   6.172
 1017DOPC   C3A11467  15.269  14.574   5.942
 1017DOPC   C4A11468  15.599  14.344   5.852
 1017DOPC   C1B11469  14.679  15.394   5.722
 1017DOPC   D2B11470  14.569  15.534   6.192
 1017DOPC   C3B11471  14.929  15.594   6.442
 1017DOPC   C4B11472  15.069  15.994   6.672
 1018DOPC   NC311473  18.169  19.324   3.362
 1018DOPC   PO411474  18.529  19.184   3.332
 1018DOPC   GL111475  18.569  19.244   3.732
 1018DOPC   GL211476  18.299  19.364   3.872
 1018DOPC   C1A11477  18.549  19.074   4.232
 1018DOPC   D2A11478  18.189  19.384   4.492
 1018DOPC   C3A11479  17.949  19.234   4.822
 1018DOPC   C4A11480  17.789  19.504   5.082
 1018DOPC   C1B11481  18.099  19.174   4.082
 1018DOPC   D2B11482  18.149  18.824   4.492
 1018DOPC   C3B11483  18.399  18.974   4.752
 1018DOPC   C4B11484  18.589  18.964   5.132
 1019DOPC   NC311485   8.869   8.324   4.012
 1019DOPC   PO411486   9.319   8.174   4.152
 1019DOPC   GL111487   9.329   8.324   4.562
 1019DOPC   GL211488   9.319   8.654   4.562
 1019DOPC   C1A11489   9.399   8.284   5.032
 1019DOPC   D2A11490   9.569   8.304   5.552
 1019DOPC   C3A11491   9.269   8.334   5.882
 1019DOPC   C4A11492   9.009   8.054   6.012
 1019DOPC   C1B11493   9.229   8.884   4.912
 1019DOPC   D2B11494   9.169   9.144   5.322
 1019DOPC   C3B11495   8.969   9.004   5.692
 1019DOPC   C4B11496   8.859   8.604   5.882
 1020DOPC   NC311497  12.469   5.794   8.152
 1020DOPC   PO411498  12.509   5.354   8.002
 1020DOPC   GL111499  12.729   5.334   7.672
 1020DOPC   GL211500  12.849   5.644   7.702
 1020DOPC   C1A11501  13.219   5.344   7.412
 1020DOPC   D2A11502  13.339   5.284   6.982
 1020DOPC   C3A11503  13.159   4.934   6.802
 1020DOPC   C4A11504  12.829   4.564   6.952
 1020DOPC   C1B11505  12.819   5.554   7.252
 1020DOPC   D2B11506  12.879   5.444   6.862
 1020DOPC   C3B11507  13.309   5.594   6.602
 1020DOPC   C4B11508  13.329   5.694   6.082
 1021DOPC   NC311509  20.789  -0.196   4.092
 1021DOPC   PO411510  21.049   0.184   3.932
 1021DOPC   GL111511  20.979   0.154   4.392
 1021DOPC   GL211512  21.339  -0.036   4.522
 1021DOPC   C1A11513  20.579   0.134   4.682
 1021DOPC   D2A11514  20.389  -0.086   5.002
 1021DOPC   C3A11515  20.139  -0.226   5.252
 1021DOPC   C4A11516  20.099  -0.356   5.622
 1021DOPC   C1B11517  21.319   0.144   4.992
 1021DOPC   D2B11518  21.079   0.504   5.172
 1021DOPC   C3B11519  20.879   0.334   5.552
 1021DOPC   C4B11520  20.569   0.424   5.722
 1022DOPC   NC311521  23.949  19.074   3.462
 1022DOPC   PO411522  23.909  18.604   3.442
 1022DOPC   GL111523  23.829  18.504   3.832
 1022DOPC   GL211524  23.509  18.224   3.882
 1022DOPC   C1A11525  23.969  18.614   4.262
 1022DOPC   D2A11526  24.319  18.684   4.562
 1022DOPC   C3A11527  24.549  18.314   4.882
 1022DOPC   C4A11528  24.869  18.114   4.532
 1022DOPC   C1B11529  23.479  18.414   4.382
 1022DOPC   D2B11530  23.269  18.114   4.832
 1022DOPC   C3B11531  22.899  17.844   4.832
 1022DOPC   C4B11532  22.749  17.484   5.132
 1023DOPC   NC311533   7.429   0.864   3.712
 1023DOPC   PO411534   7.139   1.134   3.862
 1023DOPC   GL111535   7.349   0.914   4.162
 1023DOPC   GL211536   7.069   0.774   4.282
 1023DOPC   C1A11537   7.449   0.864   4.562
 1023DOPC   D2A11538   7.299   1.014   4.992
 1023DOPC   C3A11539   7.539   0.874   5.352
 1023DOPC   C4A11540   7.529   0.974   5.692
 1023DOPC   C1B11541   6.899   0.614   4.732
 1023DOPC   D2B11542   6.769   0.774   5.112
 1023DOPC   C3B11543   6.829   0.624   5.562
 1023DOPC   C4B11544   7.159   0.564   5.802
 1024DOPC   NC311545  20.249   0.124   8.252
 1024DOPC   PO411546  20.419   0.354   7.902
 1024DOPC   GL111547  20.189   0.094   7.582
 1024DOPC   GL211548  20.079   0.334   7.392
 1024DOPC   C1A11549  20.339  -0.016   7.102
 1024DOPC   D2A11550  20.809  -0.126   6.972
 1024DOPC   C3A11551  21.009   0.134   6.622
 1024DOPC   C4A11552  21.049   0.294   6.212
 1024DOPC   C1B11553  19.869   0.124   6.952
 1024DOPC   D2B11554  19.759   0.194   6.492
 1024DOPC   C3B11555  19.959   0.264   6.162
 1024DOPC   C4B11556  20.139   0.154   5.822
 1025DOPC   NC311557  15.529  19.954   3.402
 1025DOPC   PO411558  15.669  19.784   3.712
 1025DOPC   GL111559  15.719  19.684   4.152
 1025DOPC   GL211560  16.069  19.594   4.312
 1025DOPC   C1A11561  15.529  19.544   4.592
 1025DOPC   D2A11562  15.169  19.654   4.922
 1025DOPC   C3A11563  15.269  20.044   5.012
 1025DOPC   C4A11564  15.179  20.424   5.122
 1025DOPC   C1B11565  16.049  19.654   4.802
 1025DOPC   D2B11566  16.199  19.914   5.272
 1025DOPC   C3B11567  16.069  19.994   5.712
 1025DOPC   C4B11568  15.939  19.924   6.152
 1026DOPC   NC311569  23.839   3.264   3.662
 1026DOPC   PO411570  24.029   3.744   3.702
 1026DOPC   GL111571  23.959   4.124   3.792
 1026DOPC   GL211572  23.739   4.094   3.932
 1026DOPC   C1A11573  24.229   4.404   4.082
 1026DOPC   D2A11574  24.709   4.524   4.212
 1026DOPC   C3A11575  24.789   4.914   4.172
 1026DOPC   C4A11576  24.679   5.234   3.912
 1026DOPC   C1B11577  23.889   4.194   4.362
 1026DOPC   D2B11578  23.779   4.254   4.752
 1026DOPC   C3B11579  23.489   4.364   5.102
 1026DOPC   C4B11580  23.309   4.654   5.252
 1027DOPC   NC311581  21.719  19.824   7.202
 1027DOPC   PO411582  22.069  19.634   7.412
 1027DOPC   GL111583  21.919  19.424   6.982
 1027DOPC   GL211584  21.989  19.314   6.752
 1027DOPC   C1A11585  22.019  18.864   6.822
 1027DOPC   D2A11586  21.689  18.464   6.662
 1027DOPC   C3A11587  21.339  18.554   6.472
 1027DOPC   C4A11588  20.939  18.444   6.382
 1027DOPC   C1B11589  22.079  19.634   6.442
 1027DOPC   D2B11590  21.879  19.884   6.212
 1027DOPC   C3B11591  21.559  20.214   6.412
 1027DOPC   C4B11592  21.149  20.084   6.422
 1028DOPC   NC311593  19.469  22.021   7.782
 1028DOPC   PO411594  19.219  22.351   7.602
 1028DOPC   GL111595  19.219  22.451   7.122
 1028DOPC   GL211596  19.159  22.741   7.042
 1028DOPC   C1A11597  19.469  22.261   6.892
 1028DOPC   D2A11598  19.919  22.061   6.752
 1028DOPC   C3A11599  20.169  22.081   6.412
 1028DOPC   C4A11600  20.149  22.121   5.982
 1028DOPC   C1B11601  19.139  22.971   6.592
 1028DOPC   D2B11602  18.719  22.881   6.362
 1028DOPC   C3B11603  19.049  22.811   6.042
 1028DOPC   C4B11604  19.109  22.611   5.712
 1029DOPC   NC311605  13.949   6.494   8.522
 1029DOPC   PO411606  13.879   6.384   8.132
 1029DOPC   GL111607  13.589   6.494   7.772
 1029DOPC   GL211608  13.239   6.474   7.722
 1029DOPC   C1A11609  13.629   6.714   7.382
 1029DOPC   D2A11610  13.819   6.764   7.022
 1029DOPC   C3A11611  13.559   6.774   6.742
 1029DOPC   C4A11612  13.679   6.924   6.372
 1029DOPC   C1B11613  13.149   6.574   7.382
 1029DOPC   D2B11614  13.099   6.844   7.022
 1029DOPC   C3B11615  13.319   7.244   6.922
 1029DOPC   C4B11616  13.649   7.304   6.752
 1030DOPC   NC311617  24.319   3.144   3.472
 1030DOPC   PO411618  24.699   3.194   3.302
 1030DOPC   GL111619  24.969   3.034   3.702
 1030DOPC   GL211620  24.739   2.704   3.882
 1030DOPC   C1A11621  25.219   2.964   4.082
 1030DOPC   D2A11622  25.369   2.804   4.492
 1030DOPC   C3A11623  25.746   2.894   4.822
 1030DOPC   C4A11624  26.046   3.334   4.882
 1030DOPC   C1B11625  24.599   2.774   4.242
 1030DOPC   D2B11626  24.589   2.774   4.792
 1030DOPC   C3B11627  24.749   2.444   5.102
 1030DOPC   C4B11628  24.539   2.444   5.492
 1031DOPC   NC311629  15.129  22.811   7.762
 1031DOPC   PO411630  14.949  23.231   7.702
 1031DOPC   GL111631  14.889  23.141   7.322
 1031DOPC   GL211632  14.629  23.041   7.262
 1031DOPC   C1A11633  15.059  22.921   7.022
 1031DOPC   D2A11634  15.349  22.651   6.962
 1031DOPC   C3A11635  15.699  22.741   6.662
 1031DOPC   C4A11636  16.059  22.831   6.402
 1031DOPC   C1B11637  14.649  22.531   7.152
 1031DOPC   D2B11638  14.469  22.331   6.842
 1031DOPC   C3B11639  14.029  22.311   6.682
 1031DOPC   C4B11640  13.659  22.221   6.332
 1032DOPC   NC311641  16.279  13.684   8.882
 1032DOPC   PO411642  16.269  13.984   8.562
 1032DOPC   GL111643  15.919  14.074   8.262
 1032DOPC   GL211644  15.759  14.304   8.072
 1032DOPC   C1A11645  15.579  13.804   8.242
 1032DOPC   D2A11646  15.259  13.564   7.992
 1032DOPC   C3A11647  15.079  13.664   7.632
 1032DOPC   C4A11648  15.089  13.484   7.222
 1032DOPC   C1B11649  15.479  14.284   7.842
 1032DOPC   D2B11650  15.429  14.274   7.432
 1032DOPC   C3B11651  15.729  14.384   6.992
 1032DOPC   C4B11652  16.129  14.164   6.882
 1033DOPC   NC311653  23.349  24.971   3.752
 1033DOPC   PO411654  22.929  25.131   3.812
 1033DOPC   GL111655  23.079  25.151   4.292
 1033DOPC   GL211656  23.359  24.971   4.252
 1033DOPC   C1A11657  23.009  25.361   4.672
 1033DOPC   D2A11658  22.799  25.321   5.022
 1033DOPC   C3A11659  22.439  25.031   5.092
 1033DOPC   C4A11660  22.079  25.071   4.922
 1033DOPC   C1B11661  23.599  25.271   4.512
 1033DOPC   D2B11662  23.769  25.271   4.962
 1033DOPC   C3B11663  23.619  25.621   5.202
 1033DOPC   C4B11664  23.679  25.871   5.512
 1034DOPC   NC311665   1.339   1.314   3.392
 1034DOPC   PO411666   1.429   1.764   3.412
 1034DOPC   GL111667   1.429   1.604   3.822
 1034DOPC   GL211668   1.499   1.534   4.112
 1034DOPC   C1A11669   1.019   1.484   3.942
 1034DOPC   D2A11670   0.579   1.414   4.022
 1034DOPC   C3A11671   0.419   1.594   4.472
 1034DOPC   C4A11672   0.429   1.594   4.842
 1034DOPC   C1B11673   1.509   1.474   4.562
 1034DOPC   D2B11674   1.279   1.214   4.862
 1034DOPC   C3B11675   1.389   1.174   5.252
 1034DOPC   C4B11676   1.219   0.994   5.642
 1035DOPC   NC311677  16.039   9.404   4.112
 1035DOPC   PO411678  16.419   9.144   4.262
 1035DOPC   GL111679  16.499   9.264   4.682
 1035DOPC   GL211680  16.769   9.214   4.842
 1035DOPC   C1A11681  16.419   9.464   5.202
 1035DOPC   D2A11682  16.739   9.524   5.602
 1035DOPC   C3A11683  17.119   9.404   5.732
 1035DOPC   C4A11684  17.579   9.644   5.732
 1035DOPC   C1B11685  16.829   9.154   5.282
 1035DOPC   D2B11686  16.759   8.964   5.702
 1035DOPC   C3B11687  17.029   9.144   6.152
 1035DOPC   C4B11688  17.339   9.494   6.212
 1036DOPC   NC311689   0.819  20.044   7.982
 1036DOPC   PO411690   1.169  20.374   7.792
 1036DOPC   GL111691   1.099  20.324   7.412
 1036DOPC   GL211692   1.319  20.054   7.242
 1036DOPC   C1A11693   1.159  20.614   7.132
 1036DOPC   D2A11694   0.989  21.014   7.052
 1036DOPC   C3A11695   0.739  21.094   6.742
 1036DOPC   C4A11696   0.469  21.224   6.492
 1036DOPC   C1B11697   1.459  20.354   6.852
 1036DOPC   D2B11698   1.579  20.614   6.402
 1036DOPC   C3B11699   1.309  20.724   6.062
 1036DOPC   C4B11700   1.299  20.864   5.572
 1037DOPC   NC311701  23.859   6.904   3.512
 1037DOPC   PO411702  23.959   6.414   3.382
 1037DOPC   GL111703  24.109   6.504   3.782
 1037DOPC   GL211704  24.129   6.304   3.912
 1037DOPC   C1A11705  24.279   6.744   4.172
 1037DOPC   D2A11706  24.079   6.874   4.502
 1037DOPC   C3A11707  24.359   6.994   4.832
 1037DOPC   C4A11708  24.269   7.194   5.202
 1037DOPC   C1B11709  24.589   6.434   3.962
 1037DOPC   D2B11710  24.899   6.214   4.022
 1037DOPC   C3B11711  24.949   5.984   4.392
 1037DOPC   C4B11712  25.229   5.904   4.802
 1038DOPC   NC311713  20.639   6.704   7.592
 1038DOPC   PO411714  20.899   6.474   7.302
 1038DOPC   GL111715  20.579   6.654   7.052
 1038DOPC   GL211716  20.629   6.884   6.802
 1038DOPC   C1A11717  20.409   6.324   6.792
 1038DOPC   D2A11718  20.519   6.204   6.372
 1038DOPC   C3A11719  20.829   6.404   6.052
 1038DOPC   C4A11720  21.099   6.344   5.602
 1038DOPC   C1B11721  20.399   7.254   6.852
 1038DOPC   D2B11722  20.399   7.684   6.782
 1038DOPC   C3B11723  20.229   7.754   6.412
 1038DOPC   C4B11724  19.879   7.734   6.162
 1039DOPC   NC311725  19.119  22.961   4.312
 1039DOPC   PO411726  18.759  22.731   4.132
 1039DOPC   GL111727  18.869  22.411   4.462
 1039DOPC   GL211728  19.089  22.591   4.642
 1039DOPC   C1A11729  18.869  22.241   4.882
 1039DOPC   D2A11730  18.849  22.441   5.292
 1039DOPC   C3A11731  18.619  22.401   5.572
 1039DOPC   C4A11732  18.669  22.101   5.962
 1039DOPC   C1B11733  18.769  22.751   4.922
 1039DOPC   D2B11734  18.689  23.121   5.222
 1039DOPC   C3B11735  18.769  23.191   5.692
 1039DOPC   C4B11736  18.999  23.351   6.022
 1040DOPC   NC311737   3.319   1.174   3.042
 1040DOPC   PO411738   3.539   1.084   3.302
 1040DOPC   GL111739   3.609   0.794   3.602
 1040DOPC   GL211740   3.339   0.574   3.642
 1040DOPC   C1A11741   3.839   0.814   3.972
 1040DOPC   D2A11742   3.769   0.724   4.372
 1040DOPC   C3A11743   3.879   0.474   4.802
 1040DOPC   C4A11744   3.879   0.544   5.222
 1040DOPC   C1B11745   3.609   0.334   4.072
 1040DOPC   D2B11746   3.819   0.044   4.262
 1040DOPC   C3B11747   3.979   0.024   4.722
 1040DOPC   C4B11748   4.329   0.254   5.012
 1041DOPC   NC311749  12.439   6.694   8.232
 1041DOPC   PO411750  12.119   6.974   8.242
 1041DOPC   GL111751  12.089   6.954   7.842
 1041DOPC   GL211752  11.789   7.084   7.682
 1041DOPC   C1A11753  12.169   6.654   7.492
 1041DOPC   D2A11754  12.209   6.784   7.042
 1041DOPC   C3A11755  12.669   6.714   6.822
 1041DOPC   C4A11756  12.929   6.434   6.742
 1041DOPC   C1B11757  11.779   6.934   7.282
 1041DOPC   D2B11758  11.669   6.654   6.902
 1041DOPC   C3B11759  11.489   6.184   6.942
 1041DOPC   C4B11760  11.129   6.044   6.822
 1042DOPC   NC311761  24.629  15.804   4.102
 1042DOPC   PO411762  24.479  16.204   3.842
 1042DOPC   GL111763  24.489  16.494   4.162
 1042DOPC   GL211764  24.229  16.714   4.372
 1042DOPC   C1A11765  24.679  16.634   4.542
 1042DOPC   D2A11766  24.789  16.844   4.932
 1042DOPC   C3A11767  24.729  17.344   4.962
 1042DOPC   C4A11768  24.809  17.714   4.812
 1042DOPC   C1B11769  24.139  16.694   4.852
 1042DOPC   D2B11770  23.739  16.614   5.102
 1042DOPC   C3B11771  23.679  16.144   5.412
 1042DOPC   C4B11772  23.699  15.674   5.392
 1043DOPC   NC311773  21.359  15.394   7.362
 1043DOPC   PO411774  21.479  15.794   7.582
 1043DOPC   GL111775  21.469  16.044   7.142
 1043DOPC   GL211776  21.409  15.734   6.922
 1043DOPC   C1A11777  21.819  16.014   6.932
 1043DOPC   D2A11778  21.929  15.654   6.692
 1043DOPC   C3A11779  22.329  15.804   6.462
 1043DOPC   C4A11780  22.539  16.074   6.152
 1043DOPC   C1B11781  21.459  15.714   6.452
 1043DOPC   D2B11782  21.339  16.024   6.142
 1043DOPC   C3B11783  21.309  16.484   6.282
 1043DOPC   C4B11784  21.329  16.704   5.892
 1044DOPC   NC311785  14.489   7.844   4.502
 1044DOPC   PO411786  14.399   7.554   4.752
 1044DOPC   GL111787  14.339   7.244   5.112
 1044DOPC   GL211788  14.579   7.174   5.322
 1044DOPC   C1A11789  14.179   6.944   5.472
 1044DOPC   D2A11790  14.449   6.794   5.672
 1044DOPC   C3A11791  14.419   6.494   5.992
 1044DOPC   C4A11792  14.309   6.184   6.272
 1044DOPC   C1B11793  14.649   7.614   5.492
 1044DOPC   D2B11794  14.419   7.864   5.672
 1044DOPC   C3B11795  14.519   8.094   6.062
 1044DOPC   C4B11796  14.359   8.034   6.442
 1045DOPC   NC311797  16.759  14.404   8.022
 1045DOPC   PO411798  17.169  14.534   7.872
 1045DOPC   GL111799  17.039  14.614   7.632
 1045DOPC   GL211800  17.249  14.814   7.392
 1045DOPC   C1A11801  16.789  14.784   7.342
 1045DOPC   D2A11802  16.929  14.854   6.842
 1045DOPC   C3A11803  17.099  14.474   6.742
 1045DOPC   C4A11804  17.189  14.244   6.302
 1045DOPC   C1B11805  17.279  14.394   7.222
 1045DOPC   D2B11806  17.109  14.004   6.992
 1045DOPC   C3B11807  16.899  14.004   6.652
 1045DOPC   C4B11808  16.499  13.954   6.422
 1046DOPC   NC311809   7.089  18.144   4.242
 1046DOPC   PO411810   7.259  17.724   4.422
 1046DOPC   GL111811   7.099  17.694   4.792
 1046DOPC   GL211812   6.729  17.864   4.742
 1046DOPC   C1A11813   7.399  17.734   5.172
 1046DOPC   D2A11814   7.559  17.884   5.592
 1046DOPC   C3A11815   7.899  17.854   5.832
 1046DOPC   C4A11816   8.159  17.774   6.082
 1046DOPC   C1B11817   6.499  17.634   5.012
 1046DOPC   D2B11818   6.339  17.644   5.382
 1046DOPC   C3B11819   6.579  17.524   5.682
 1046DOPC   C4B11820   6.939  17.274   5.962
 1047DOPC   NC311821   9.359   0.094   4.272
 1047DOPC   PO411822   9.609  -0.276   4.322
 1047DOPC   GL111823   9.859   0.034   4.442
 1047DOPC   GL211824  10.009  -0.156   4.652
 1047DOPC   C1A11825   9.769   0.314   4.862
 1047DOPC   D2A11826   9.719   0.524   5.292
 1047DOPC   C3A11827   9.279   0.474   5.402
 1047DOPC   C4A11828   8.819   0.554   5.362
 1047DOPC   C1B11829  10.059  -0.136   5.022
 1047DOPC   D2B11830   9.909   0.074   5.282
 1047DOPC   C3B11831   9.429  -0.016   5.342
 1047DOPC   C4B11832   9.299  -0.086   5.702
 1048DOPC   NC311833  19.939  23.341   3.622
 1048DOPC   PO411834  20.209  23.371   4.002
 1048DOPC   GL111835  20.509  23.481   4.352
 1048DOPC   GL211836  20.449  23.851   4.452
 1048DOPC   C1A11837  20.849  23.181   4.552
 1048DOPC   D2A11838  21.039  23.151   4.912
 1048DOPC   C3A11839  20.939  22.831   5.232
 1048DOPC   C4A11840  20.949  22.721   5.612
 1048DOPC   C1B11841  20.469  23.821   4.902
 1048DOPC   D2B11842  20.359  23.831   5.322
 1048DOPC   C3B11843  20.549  23.661   5.762
 1048DOPC   C4B11844  20.899  23.561   5.942
 1049DOPC   NC311845   8.749  20.024   8.852
 1049DOPC   PO411846   8.929  20.344   8.472
 1049DOPC   GL111847   9.059  20.524   8.042
 1049DOPC   GL211848   9.359  20.584   7.972
 1049DOPC   C1A11849   9.189  20.224   7.622
 1049DOPC   D2A11850   9.309  20.274   7.222
 1049DOPC   C3A11851   9.419  20.584   6.992
 1049DOPC   C4A11852   9.169  20.904   6.772
 1049DOPC   C1B11853   9.359  20.954   7.752
 1049DOPC   D2B11854   9.409  20.934   7.382
 1049DOPC   C3B11855   9.729  21.304   7.252
 1049DOPC   C4B11856   9.979  21.661   7.182
 1050DOPC   NC311857   8.719  22.071   4.202
 1050DOPC   PO411858   8.439  22.071   4.582
 1050DOPC   GL111859   8.319  22.091   4.972
 1050DOPC   GL211860   8.509  21.731   4.952
 1050DOPC   C1A11861   8.429  22.381   5.242
 1050DOPC   D2A11862   8.369  22.681   5.582
 1050DOPC   C3A11863   8.119  22.501   5.852
 1050DOPC   C4A11864   8.069  22.161   6.162
 1050DOPC   C1B11865   8.159  21.641   5.312
 1050DOPC   D2B11866   8.129  21.551   5.832
 1050DOPC   C3B11867   8.519  21.671   5.982
 1050DOPC   C4B11868   8.819  21.511   6.242
 1051DOPC   NC311869  12.619   0.204   8.272
 1051DOPC   PO411870  12.859   0.534   8.102
 1051DOPC   GL111871  12.989   0.464   7.662
 1051DOPC   GL211872  12.879   0.764   7.602
 1051DOPC   C1A11873  12.829   0.424   7.172
 1051DOPC   D2A11874  12.709   0.674   6.832
 1051DOPC   C3A11875  12.359   0.704   6.582
 1051DOPC   C4A11876  11.929   0.454   6.582
 1051DOPC   C1B11877  12.489   0.704   7.302
 1051DOPC   D2B11878  12.049   0.694   7.262
 1051DOPC   C3B11879  11.829   0.404   7.052
 1051DOPC   C4B11880  11.629   0.104   6.902
 1052DOPC   NC311881   8.869  18.004   4.112
 1052DOPC   PO411882   8.569  17.724   4.162
 1052DOPC   GL111883   8.579  17.864   4.582
 1052DOPC   GL211884   8.699  18.224   4.562
 1052DOPC   C1A11885   8.269  17.864   5.002
 1052DOPC   D2A11886   8.229  17.814   5.472
 1052DOPC   C3A11887   8.469  17.504   5.662
 1052DOPC   C4A11888   8.399  17.384   6.092
 1052DOPC   C1B11889   8.639  18.294   5.012
 1052DOPC   D2B11890   8.469  18.404   5.412
 1052DOPC   C3B11891   8.029  18.314   5.362
 1052DOPC   C4B11892   7.749  18.074   5.132
 1053DOPC   NC311893  21.059   0.654   3.612
 1053DOPC   PO411894  20.789   0.904   3.792
 1053DOPC   GL111895  20.669   1.124   4.132
 1053DOPC   GL211896  20.519   1.564   4.192
 1053DOPC   C1A11897  20.489   1.184   4.592
 1053DOPC   D2A11898  20.469   1.334   5.032
 1053DOPC   C3A11899  20.729   1.554   5.132
 1053DOPC   C4A11900  21.109   1.624   5.382
 1053DOPC   C1B11901  20.849   1.484   4.482
 1053DOPC   D2B11902  21.209   1.454   4.782
 1053DOPC   C3B11903  21.509   1.594   5.032
 1053DOPC   C4B11904  21.649   1.544   5.472
 1054DOPC   NC311905   5.849  18.054   4.502
 1054DOPC   PO411906   5.489  18.244   4.362
 1054DOPC   GL111907   5.369  18.234   4.852
 1054DOPC   GL211908   5.579  17.954   4.932
 1054DOPC   C1A11909   5.529  18.354   5.202
 1054DOPC   D2A11910   5.839  18.634   5.492
 1054DOPC   C3A11911   5.709  18.884   5.752
 1054DOPC   C4A11912   5.369  18.964   6.012
 1054DOPC   C1B11913   5.519  17.904   5.342
 1054DOPC   D2B11914   5.469  18.144   5.702
 1054DOPC   C3B11915   5.339  17.934   6.082
 1054DOPC   C4B11916   5.109  17.634   6.382
 1055DOPC   NC311917  24.389  19.734   3.912
 1055DOPC   PO411918  24.009  20.004   3.812
 1055DOPC   GL111919  24.059  19.974   4.192
 1055DOPC   GL211920  24.339  19.814   4.392
 1055DOPC   C1A11921  24.119  20.094   4.642
 1055DOPC   D2A11922  24.189  19.914   5.072
 1055DOPC   C3A11923  24.509  19.834   5.412
 1055DOPC   C4A11924  24.799  19.734   5.722
 1055DOPC   C1B11925  24.109  19.634   4.722
 1055DOPC   D2B11926  23.819  19.544   5.182
 1055DOPC   C3B11927  23.939  19.304   5.532
 1055DOPC   C4B11928  23.669  19.154   5.802
 1056DOPC   NC311929  19.329   2.984   7.462
 1056DOPC   PO411930  19.759   3.124   7.672
 1056DOPC   GL111931  19.799   3.114   7.182
 1056DOPC   GL211932  19.619   2.784   7.092
 1056DOPC   C1A11933  19.609   3.164   6.802
 1056DOPC   D2A11934  19.249   3.264   6.592
 1056DOPC   C3A11935  19.029   2.994   6.232
 1056DOPC   C4A11936  19.089   2.604   6.332
 1056DOPC   C1B11937  20.009   2.934   6.782
 1056DOPC   D2B11938  20.289   2.874   6.322
 1056DOPC   C3B11939  20.129   2.924   5.972
 1056DOPC   C4B11940  19.829   2.564   5.842
 1057DOPC   NC311941  13.419  22.541   8.252
 1057DOPC   PO411942  13.269  22.931   8.252
 1057DOPC   GL111943  12.999  23.101   7.852
 1057DOPC   GL211944  12.979  23.361   7.622
 1057DOPC   C1A11945  12.859  22.861   7.502
 1057DOPC   D2A11946  12.379  22.841   7.382
 1057DOPC   C3A11947  12.259  22.721   7.022
 1057DOPC   C4A11948  11.939  22.931   6.842
 1057DOPC   C1B11949  12.709  23.331   7.272
 1057DOPC   D2B11950  12.649  23.051   6.982
 1057DOPC   C3B11951  12.349  23.131   6.642
 1057DOPC   C4B11952  12.109  22.981   6.362
 1058DOPC   NC311953  11.969  18.544   5.112
 1058DOPC   PO411954  11.789  18.904   5.122
 1058DOPC   GL111955  11.559  18.994   5.502
 1058DOPC   GL211956  11.259  19.154   5.532
 1058DOPC   C1A11957  11.639  18.754   5.882
 1058DOPC   D2A11958  11.329  18.654   6.262
 1058DOPC   C3A11959  10.949  18.664   6.292
 1058DOPC   C4A11960  10.739  18.604   6.702
 1058DOPC   C1B11961  10.779  19.104   5.862
 1058DOPC   D2B11962  10.529  18.824   6.052
 1058DOPC   C3B11963  10.239  18.394   6.042
 1058DOPC   C4B11964  10.129  18.094   6.462
 1059DOPC   NC311965  24.469  12.914   3.672
 1059DOPC   PO411966  24.959  13.044   3.622
 1059DOPC   GL111967  25.199  13.054   4.092
 1059DOPC   GL211968  25.029  13.004   4.312
 1059DOPC   C1A11969  25.429  13.334   4.462
 1059DOPC   D2A11970  25.309  13.534   4.842
 1059DOPC   C3A11971  25.599  13.904   4.872
 1059DOPC   C4A11972  26.026  13.894   4.982
 1059DOPC   C1B11973  25.119  12.934   4.792
 1059DOPC   D2B11974  25.109  12.624   4.992
 1059DOPC   C3B11975  24.909  12.634   5.362
 1059DOPC   C4B11976  25.079  12.554   5.762
 1060DOPC   NC311977  17.989  18.384   3.412
 1060DOPC   PO411978  18.169  18.194   3.752
 1060DOPC   GL111979  18.399  18.154   4.072
 1060DOPC   GL211980  18.459  18.404   4.162
 1060DOPC   C1A11981  18.379  17.894   4.462
 1060DOPC   D2A11982  18.089  17.774   4.872
 1060DOPC   C3A11983  17.709  17.684   4.992
 1060DOPC   C4A11984  17.499  17.424   4.792
 1060DOPC   C1B11985  18.649  18.614   4.422
 1060DOPC   D2B11986  18.809  18.664   4.852
 1060DOPC   C3B11987  19.119  18.464   5.112
 1060DOPC   C4B11988  18.849  18.144   5.312
 1061DOPC   NC311989  19.619  23.591   3.842
 1061DOPC   PO411990  19.349  23.381   4.202
 1061DOPC   GL111991  19.459  23.181   4.612
 1061DOPC   GL211992  19.829  23.071   4.782
 1061DOPC   C1A11993  19.149  23.161   4.952
 1061DOPC   D2A11994  19.109  22.911   5.292
 1061DOPC   C3A11995  19.259  23.151   5.622
 1061DOPC   C4A11996  19.609  23.281   5.642
 1061DOPC   C1B11997  19.579  23.031   5.192
 1061DOPC   D2B11998  19.649  22.741   5.522
 1061DOPC   C3B11999  19.549  22.871   5.932
 1061DOPC   C4B12000  19.419  23.201   6.202
 1062DOPC   NC312001  15.289  13.444   4.802
 1062DOPC   PO412002  15.359  13.024   4.842
 1062DOPC   GL112003  15.189  12.794   5.362
 1062DOPC   GL212004  14.799  12.794   5.452
 1062DOPC   C1A12005  15.449  12.554   5.732
 1062DOPC   D2A12006  15.829  12.544   5.912
 1062DOPC   C3A12007  15.999  12.914   5.912
 1062DOPC   C4A12008  16.109  13.314   5.812
 1062DOPC   C1B12009  15.009  13.014   5.782
 1062DOPC   D2B12010  15.159  13.444   5.932
 1062DOPC   C3B12011  14.969  13.774   6.132
 1062DOPC   C4B12012  14.729  14.134   6.152
 1063DOPC   NC312013   3.949  21.254   4.022
 1063DOPC   PO412014   3.979  20.774   4.032
 1063DOPC   GL112015   3.719  20.864   4.462
 1063DOPC   GL212016   3.909  20.754   4.772
 1063DOPC   C1A12017   3.489  21.234   4.632
 1063DOPC   D2A12018   3.639  21.471   4.812
 1063DOPC   C3A12019   3.789  21.541   5.272
 1063DOPC   C4A12020   4.019  21.691   5.642
 1063DOPC   C1B12021   3.499  20.754   4.962
 1063DOPC   D2B12022   3.349  20.554   5.362
 1063DOPC   C3B12023   3.569  20.834   5.602
 1063DOPC   C4B12024   4.039  20.804   5.722
 1064DOPC   NC312025  13.279  12.144   4.752
 1064DOPC   PO412026  13.159  11.834   5.062
 1064DOPC   GL112027  13.469  11.754   5.432
 1064DOPC   GL212028  13.329  11.794   5.662
 1064DOPC   C1A12029  13.799  11.644   5.842
 1064DOPC   D2A12030  14.039  11.224   5.932
 1064DOPC   C3A12031  14.249  11.034   6.222
 1064DOPC   C4A12032  14.519  10.804   6.492
 1064DOPC   C1B12033  13.379  11.634   6.112
 1064DOPC   D2B12034  13.709  11.534   6.362
 1064DOPC   C3B12035  14.209  11.544   6.292
 1064DOPC   C4B12036  14.589  11.394   6.412
 1065DOPC   NC312037   9.559  18.694   8.272
 1065DOPC   PO412038   9.989  18.524   8.182
 1065DOPC   GL112039  10.099  18.204   8.022
 1065DOPC   GL212040  10.049  18.264   7.712
 1065DOPC   C1A12041  10.179  17.834   7.802
 1065DOPC   D2A12042  10.579  17.664   7.582
 1065DOPC   C3A12043  10.629  17.874   7.182
 1065DOPC   C4A12044  10.449  18.224   6.892
 1065DOPC   C1B12045   9.699  18.484   7.662
 1065DOPC   D2B12046   9.219  18.414   7.592
 1065DOPC   C3B12047   9.159  17.964   7.442
 1065DOPC   C4B12048   9.119  17.664   7.182
 1066DOPC   NC312049   4.149  20.974   3.622
 1066DOPC   PO412050   4.489  20.974   3.902
 1066DOPC   GL112051   4.519  20.934   4.372
 1066DOPC   GL212052   4.579  20.594   4.472
 1066DOPC   C1A12053   4.379  20.874   4.802
 1066DOPC   D2A12054   4.249  20.834   5.202
 1066DOPC   C3A12055   3.949  20.544   5.202
 1066DOPC   C4A12056   3.809  20.304   5.612
 1066DOPC   C1B12057   4.279  20.384   4.822
 1066DOPC   D2B12058   4.079  20.064   5.232
 1066DOPC   C3B12059   3.809  19.644   5.152
 1066DOPC   C4B12060   3.959  19.234   5.502
 1067DOPC   NC312061   9.029   0.864   7.922
 1067DOPC   PO412062   9.139   0.494   7.852
 1067DOPC   GL112063   9.369   0.644   7.442
 1067DOPC   GL212064   9.259   0.394   7.272
 1067DOPC   C1A12065   9.319   0.884   7.122
 1067DOPC   D2A12066   9.499   1.234   6.882
 1067DOPC   C3A12067   9.929   1.274   6.852
 1067DOPC   C4A12068  10.269   1.484   6.532
 1067DOPC   C1B12069   9.419   0.154   6.812
 1067DOPC   D2B12070   9.549   0.034   6.372
 1067DOPC   C3B12071   9.449   0.334   6.042
 1067DOPC   C4B12072   9.039   0.414   5.862
 1068DOPC   NC312073  20.289  21.901   2.992
 1068DOPC   PO412074  20.299  21.801   3.482
 1068DOPC   GL112075  20.269  21.741   3.922
 1068DOPC   GL212076  19.989  21.521   3.992
 1068DOPC   C1A12077  20.509  21.911   4.272
 1068DOPC   D2A12078  20.869  22.161   4.602
 1068DOPC   C3A12079  20.689  21.901   5.032
 1068DOPC   C4A12080  20.759  21.661   5.412
 1068DOPC   C1B12081  20.089  21.591   4.472
 1068DOPC   D2B12082  19.819  21.491   4.762
 1068DOPC   C3B12083  19.789  21.204   5.152
 1068DOPC   C4B12084  20.039  20.964   5.482
 1069DOPC   NC312085  21.389  22.851   3.812
 1069DOPC   PO412086  21.059  22.701   3.992
 1069DOPC   GL112087  21.189  22.581   4.442
 1069DOPC   GL212088  21.549  22.541   4.452
 1069DOPC   C1A12089  21.139  22.561   4.842
 1069DOPC   D2A12090  21.049  22.221   5.162
 1069DOPC   C3A12091  20.849  22.291   5.502
 1069DOPC   C4A12092  20.499  22.511   5.802
 1069DOPC   C1B12093  21.759  22.511   4.922
 1069DOPC   D2B12094  21.959  22.321   5.262
 1069DOPC   C3B12095  21.789  22.621   5.672
 1069DOPC   C4B12096  21.839  23.091   5.872
 1070DOPC   NC312097  21.779  11.104   3.462
 1070DOPC   PO412098  21.869  11.484   3.402
 1070DOPC   GL112099  21.979  11.694   3.692
 1070DOPC   GL212100  22.039  11.314   3.972
 1070DOPC   C1A12101  21.699  11.734   4.112
 1070DOPC   D2A12102  21.309  11.924   4.312
 1070DOPC   C3A12103  21.279  12.084   4.682
 1070DOPC   C4A12104  21.179  12.124   5.112
 1070DOPC   C1B12105  22.479  11.364   4.112
 1070DOPC   D2B12106  22.959  11.164   4.332
 1070DOPC   C3B12107  22.949  10.994   4.742
 1070DOPC   C4B12108  22.529  11.024   5.002
 1071DOPC   NC312109   7.819  14.174   4.002
 1071DOPC   PO412110   7.369  14.214   3.872
 1071DOPC   GL112111   7.219  14.154   4.262
 1071DOPC   GL212112   7.129  13.834   4.322
 1071DOPC   C1A12113   7.179  14.234   4.672
 1071DOPC   D2A12114   6.809  14.464   4.892
 1071DOPC   C3A12115   6.319  14.454   4.862
 1071DOPC   C4A12116   5.929  14.574   4.662
 1071DOPC   C1B12117   7.049  13.774   4.782
 1071DOPC   D2B12118   6.769  13.704   5.132
 1071DOPC   C3B12119   6.769  13.904   5.612
 1071DOPC   C4B12120   7.039  14.094   5.882
 1072DOPC   NC312121  12.509   2.034   4.372
 1072DOPC   PO412122  12.249   1.724   4.152
 1072DOPC   GL112123  12.119   1.844   4.552
 1072DOPC   GL212124  11.859   1.884   4.672
 1072DOPC   C1A12125  12.369   1.704   4.952
 1072DOPC   D2A12126  12.679   1.344   5.202
 1072DOPC   C3A12127  12.799   1.434   5.602
 1072DOPC   C4A12128  13.059   1.724   5.842
 1072DOPC   C1B12129  12.059   2.044   5.122
 1072DOPC   D2B12130  12.209   2.194   5.492
 1072DOPC   C3B12131  12.569   2.424   5.452
 1072DOPC   C4B12132  12.989   2.604   5.732
 1073DOPC   NC312133  15.249  23.221   4.262
 1073DOPC   PO412134  15.269  22.801   4.472
 1073DOPC   GL112135  15.599  22.711   4.742
 1073DOPC   GL212136  15.889  22.751   4.642
 1073DOPC   C1A12137  15.699  22.471   5.152
 1073DOPC   D2A12138  15.809  22.201   5.492
 1073DOPC   C3A12139  16.189  22.031   5.642
 1073DOPC   C4A12140  16.439  22.301   5.762
 1073DOPC   C1B12141  16.149  22.731   5.012
 1073DOPC   D2B12142  16.169  22.521   5.402
 1073DOPC   C3B12143  16.229  22.731   5.822
 1073DOPC   C4B12144  16.289  23.091   5.962
 1074DOPC   NC312145  10.359   2.104   4.002
 1074DOPC   PO412146  10.009   2.164   3.882
 1074DOPC   GL112147  10.019   2.204   4.372
 1074DOPC   GL212148   9.849   2.354   4.582
 1074DOPC   C1A12149  10.049   2.014   4.802
 1074DOPC   D2A12150   9.909   1.714   5.122
 1074DOPC   C3A12151  10.199   1.574   5.362
 1074DOPC   C4A12152  10.389   1.184   5.522
 1074DOPC   C1B12153   9.599   2.214   4.912
 1074DOPC   D2B12154   9.699   2.264   5.342
 1074DOPC   C3B12155   9.589   2.664   5.422
 1074DOPC   C4B12156   9.309   2.974   5.612
 1075DOPC   NC312157  22.639   7.904   3.322
 1075DOPC   PO412158  22.879   7.584   3.222
 1075DOPC   GL112159  22.949   7.734   3.682
 1075DOPC   GL212160  22.629   7.764   3.772
 1075DOPC   C1A12161  22.979   7.704   4.162
 1075DOPC   D2A12162  23.289   8.034   4.422
 1075DOPC   C3A12163  23.249   8.184   4.852
 1075DOPC   C4A12164  22.989   8.474   4.962
 1075DOPC   C1B12165  22.449   7.774   4.252
 1075DOPC   D2B12166  22.189   7.734   4.602
 1075DOPC   C3B12167  21.869   7.674   4.492
 1075DOPC   C4B12168  21.419   7.474   4.602
 1076DOPC   NC312169  17.499  15.474   4.172
 1076DOPC   PO412170  17.849  15.644   4.142
 1076DOPC   GL112171  17.809  15.864   4.502
 1076DOPC   GL212172  17.499  15.804   4.612
 1076DOPC   C1A12173  17.839  15.804   4.922
 1076DOPC   D2A12174  17.999  15.864   5.372
 1076DOPC   C3A12175  18.109  16.294   5.562
 1076DOPC   C4A12176  17.979  16.544   5.822
 1076DOPC   C1B12177  17.199  15.674   4.862
 1076DOPC   D2B12178  16.779  15.744   4.732
 1076DOPC   C3B12179  16.649  15.704   5.112
 1076DOPC   C4B12180  16.739  15.654   5.592
 1077DOPC   NC312181   7.419  22.131   3.682
 1077DOPC   PO412182   7.429  22.051   4.142
 1077DOPC   GL112183   7.689  22.011   4.512
 1077DOPC   GL212184   7.609  21.761   4.762
 1077DOPC   C1A12185   7.759  22.371   4.852
 1077DOPC   D2A12186   7.969  22.561   5.192
 1077DOPC   C3A12187   7.739  22.671   5.562
 1077DOPC   C4A12188   7.529  23.041   5.722
 1077DOPC   C1B12189   7.639  21.911   5.122
 1077DOPC   D2B12190   7.789  22.161   5.432
 1077DOPC   C3B12191   8.159  22.041   5.582
 1077DOPC   C4B12192   8.489  22.121   5.812
 1078DOPC   NC312193   0.759  22.981   3.392
 1078DOPC   PO412194   0.869  22.931   3.792
 1078DOPC   GL112195   0.819  22.961   4.292
 1078DOPC   GL212196   0.569  22.731   4.442
 1078DOPC   C1A12197   1.089  22.801   4.632
 1078DOPC   D2A12198   0.869  22.681   5.042
 1078DOPC   C3A12199   0.629  22.941   5.292
 1078DOPC   C4A12200   0.289  23.161   5.512
 1078DOPC   C1B12201   0.849  22.321   4.642
 1078DOPC   D2B12202   0.659  22.041   4.852
 1078DOPC   C3B12203   0.709  21.841   5.292
 1078DOPC   C4B12204   0.839  21.521   5.582
 1079DOPC   NC312205   2.799  12.134   3.462
 1079DOPC   PO412206   2.779  11.974   3.922
 1079DOPC   GL112207   2.489  11.914   4.272
 1079DOPC   GL212208   2.269  11.704   4.182
 1079DOPC   C1A12209   2.159  12.074   4.542
 1079DOPC   D2A12210   1.889  12.274   4.932
 1079DOPC   C3A12211   2.039  12.354   5.342
 1079DOPC   C4A12212   2.389  12.404   5.642
 1079DOPC   C1B12213   2.309  11.544   4.552
 1079DOPC   D2B12214   2.249  11.294   4.962
 1079DOPC   C3B12215   1.859  11.014   5.102
 1079DOPC   C4B12216   1.539  11.194   5.532
 1080DOPC   NC312217  21.439  12.884   3.502
 1080DOPC   PO412218  21.489  12.454   3.662
 1080DOPC   GL112219  21.629  12.364   4.092
 1080DOPC   GL212220  21.709  12.704   4.202
 1080DOPC   C1A12221  21.769  12.154   4.372
 1080DOPC   D2A12222  21.839  12.094   4.812
 1080DOPC   C3A12223  21.739  12.084   5.162
 1080DOPC   C4A12224  21.569  11.804   5.552
 1080DOPC   C1B12225  22.009  12.604   4.602
 1080DOPC   D2B12226  22.139  12.884   4.922
 1080DOPC   C3B12227  22.359  13.184   5.142
 1080DOPC   C4B12228  22.479  13.454   5.552
 1081DOPC   NC312229  21.809  16.894   4.012
 1081DOPC   PO412230  21.939  16.514   3.922
 1081DOPC   GL112231  21.989  16.294   4.202
 1081DOPC   GL212232  21.719  16.334   4.442
 1081DOPC   C1A12233  22.239  16.344   4.532
 1081DOPC   D2A12234  22.329  16.094   4.892
 1081DOPC   C3A12235  22.329  15.604   4.812
 1081DOPC   C4A12236  22.029  15.324   4.602
 1081DOPC   C1B12237  21.479  16.674   4.642
 1081DOPC   D2B12238  21.369  16.734   4.982
 1081DOPC   C3B12239  20.919  16.794   5.042
 1081DOPC   C4B12240  20.859  16.744   5.542
 1082DOPC   NC312241  12.909  18.014   9.032
 1082DOPC   PO412242  12.749  17.614   8.792
 1082DOPC   GL112243  12.739  17.554   8.352
 1082DOPC   GL212244  12.689  17.254   8.152
 1082DOPC   C1A12245  12.949  17.744   8.042
 1082DOPC   D2A12246  13.019  17.614   7.622
 1082DOPC   C3A12247  12.659  17.674   7.462
 1082DOPC   C4A12248  12.409  17.544   7.182
 1082DOPC   C1B12249  12.719  17.314   7.812
 1082DOPC   D2B12250  12.879  17.154   7.392
 1082DOPC   C3B12251  12.729  17.144   7.012
 1082DOPC   C4B12252  12.699  17.014   6.592
 1083DOPC   NC312253   2.079  19.864   3.942
 1083DOPC   PO412254   1.789  19.604   3.652
 1083DOPC   GL112255   1.589  19.704   4.052
 1083DOPC   GL212256   1.559  19.974   3.922
 1083DOPC   C1A12257   1.699  19.764   4.512
 1083DOPC   D2A12258   1.989  19.584   4.722
 1083DOPC   C3A12259   2.119  19.164   4.672
 1083DOPC   C4A12260   1.869  18.904   4.692
 1083DOPC   C1B12261   1.119  19.924   4.082
 1083DOPC   D2B12262   0.749  20.044   4.272
 1083DOPC   C3B12263   0.689  20.154   4.752
 1083DOPC   C4B12264   0.809  20.144   5.112
 1084DOPC   NC312265  16.429   1.324   4.252
 1084DOPC   PO412266  16.589   1.644   4.392
 1084DOPC   GL112267  16.819   1.684   4.762
 1084DOPC   GL212268  17.069   1.554   4.812
 1084DOPC   C1A12269  16.899   1.664   5.252
 1084DOPC   D2A12270  17.259   1.624   5.362
 1084DOPC   C3A12271  17.529   1.324   5.142
 1084DOPC   C4A12272  17.729   0.974   5.342
 1084DOPC   C1B12273  17.499   1.724   4.882
 1084DOPC   D2B12274  17.629   2.004   5.182
 1084DOPC   C3B12275  17.899   2.384   5.102
 1084DOPC   C4B12276  17.959   2.794   5.262
 1085DOPC   NC312277   7.989  15.794   8.282
 1085DOPC   PO412278   7.559  15.874   8.222
 1085DOPC   GL112279   7.739  15.684   7.842
 1085DOPC   GL212280   7.479  15.804   7.672
 1085DOPC   C1A12281   7.839  15.404   7.492
 1085DOPC   D2A12282   8.049  15.224   7.152
 1085DOPC   C3A12283   8.139  15.354   6.722
 1085DOPC   C4A12284   8.179  15.054   6.422
 1085DOPC   C1B12285   7.739  15.724   7.142
 1085DOPC   D2B12286   7.949  15.794   6.742
 1085DOPC   C3B12287   7.979  16.134   6.462
 1085DOPC   C4B12288   7.879  16.434   6.082
 1086DOPC   NC312289  -0.019  21.851   4.102
 1086DOPC   PO412290  -0.059  21.491   4.122
 1086DOPC   GL112291   0.329  21.601   4.402
 1086DOPC   GL212292   0.149  21.781   4.602
 1086DOPC   C1A12293   0.459  21.571   4.872
 1086DOPC   D2A12294   0.239  21.601   5.302
 1086DOPC   C3A12295   0.001  21.284   5.502
 1086DOPC   C4A12296  -0.279  21.254   5.852
 1086DOPC   C1B12297   0.149  22.081   4.932
 1086DOPC   D2B12298   0.041  22.031   5.442
 1086DOPC   C3B12299  -0.289  21.721   5.342
 1086DOPC   C4B12300  -0.519  21.274   5.422
 1087DOPC   NC312301   4.389   2.054   7.512
 1087DOPC   PO412302   3.989   1.714   7.452
 1087DOPC   GL112303   4.219   1.864   7.052
 1087DOPC   GL212304   4.539   1.944   6.992
 1087DOPC   C1A12305   4.339   1.564   6.632
 1087DOPC   D2A12306   4.449   1.704   6.232
 1087DOPC   C3A12307   4.129   1.674   5.922
 1087DOPC   C4A12308   4.249   1.764   5.512
 1087DOPC   C1B12309   4.849   2.104   6.802
 1087DOPC   D2B12310   4.909   2.094   6.392
 1087DOPC   C3B12311   5.279   1.974   6.132
 1087DOPC   C4B12312   5.319   1.574   5.792
 1088DOPC   NC312313   2.239   9.864   3.422
 1088DOPC   PO412314   2.649   9.864   3.422
 1088DOPC   GL112315   2.499   9.874   3.882
 1088DOPC   GL212316   2.199   9.754   3.932
 1088DOPC   C1A12317   2.469   9.964   4.322
 1088DOPC   D2A12318   2.779   9.814   4.692
 1088DOPC   C3A12319   3.169   9.894   4.862
 1088DOPC   C4A12320   3.389   9.714   5.162
 1088DOPC   C1B12321   2.129   9.634   4.362
 1088DOPC   D2B12322   2.279   9.514   4.702
 1088DOPC   C3B12323   2.409   9.894   5.052
 1088DOPC   C4B12324   2.759   9.994   5.332
 1089DOPC   NC312325  -0.279   7.294   6.432
 1089DOPC   PO412326  -0.129   7.784   6.502
 1089DOPC   GL112327   0.031   8.094   6.282
 1089DOPC   GL212328  -0.059   8.404   6.252
 1089DOPC   C1A12329   0.349   8.084   5.982
 1089DOPC   D2A12330   0.239   8.154   5.532
 1089DOPC   C3A12331   0.289   7.964   5.112
 1089DOPC   C4A12332   0.569   7.614   5.022
 1089DOPC   C1B12333  -0.089   8.534   5.832
 1089DOPC   D2B12334  -0.069   8.504   5.482
 1089DOPC   C3B12335   0.229   8.754   5.362
 1089DOPC   C4B12336   0.549   8.904   5.062
 1090DOPC   NC312337  15.329   3.444   8.002
 1090DOPC   PO412338  14.959   3.074   7.942
 1090DOPC   GL112339  15.099   3.314   7.572
 1090DOPC   GL212340  15.089   3.604   7.582
 1090DOPC   C1A12341  15.409   3.364   7.262
 1090DOPC   D2A12342  15.549   3.594   6.872
 1090DOPC   C3A12343  15.499   3.424   6.532
 1090DOPC   C4A12344  15.569   3.034   6.362
 1090DOPC   C1B12345  15.019   3.584   7.122
 1090DOPC   D2B12346  14.969   3.614   6.682
 1090DOPC   C3B12347  14.869   3.884   6.452
 1090DOPC   C4B12348  14.719   4.154   6.122
 1091DOPC   NC312349   2.559  24.611   7.482
 1091DOPC   PO412350   2.559  24.201   7.512
 1091DOPC   GL112351   2.609  24.041   7.192
 1091DOPC   GL212352   2.509  24.301   6.952
 1091DOPC   C1A12353   3.059  24.081   6.952
 1091DOPC   D2A12354   3.069  23.891   6.502
 1091DOPC   C3A12355   2.899  24.141   6.132
 1091DOPC   C4A12356   2.739  24.071   5.772
 1091DOPC   C1B12357   2.599  23.951   6.682
 1091DOPC   D2B12358   2.679  23.691   6.322
 1091DOPC   C3B12359   2.969  23.611   6.012
 1091DOPC   C4B12360   3.139  23.291   5.672
 1092DOPC   NC312361   7.709  25.041   3.582
 1092DOPC   PO412362   7.609  24.811   3.982
 1092DOPC   GL112363   7.619  25.061   4.432
 1092DOPC   GL212364   7.719  24.901   4.732
 1092DOPC   C1A12365   7.609  25.411   4.792
 1092DOPC   D2A12366   7.519  25.571   5.202
 1092DOPC   C3A12367   7.609  26.001   5.432
 1092DOPC   C4A12368   7.689  26.141   5.872
 1092DOPC   C1B12369   7.739  25.121   5.152
 1092DOPC   D2B12370   7.619  25.221   5.562
 1092DOPC   C3B12371   7.309  25.051   5.742
 1092DOPC   C4B12372   7.049  24.701   5.632
 1093DOPC   NC312373  19.039  23.761   4.152
 1093DOPC   PO412374  18.619  23.631   3.992
 1093DOPC   GL112375  18.519  23.451   4.342
 1093DOPC   GL212376  18.659  23.141   4.442
 1093DOPC   C1A12377  18.169  23.261   4.622
 1093DOPC   D2A12378  18.239  22.931   5.012
 1093DOPC   C3A12379  18.269  23.091   5.502
 1093DOPC   C4A12380  18.329  23.091   5.942
 1093DOPC   C1B12381  18.609  23.421   4.822
 1093DOPC   D2B12382  18.369  23.481   5.102
 1093DOPC   C3B12383  18.429  23.951   5.182
 1093DOPC   C4B12384  18.179  24.121   5.462
 1094DOPC   NC312385  13.089   4.754   4.192
 1094DOPC   PO412386  13.459   4.784   4.172
 1094DOPC   GL112387  13.349   4.634   4.612
 1094DOPC   GL212388  13.089   4.684   4.732
 1094DOPC   C1A12389  13.409   4.504   5.092
 1094DOPC   D2A12390  13.289   4.354   5.422
 1094DOPC   C3A12391  13.599   4.454   5.722
 1094DOPC   C4A12392  14.089   4.404   5.882
 1094DOPC   C1B12393  12.919   4.634   5.152
 1094DOPC   D2B12394  12.739   4.414   5.532
 1094DOPC   C3B12395  12.949   4.304   5.862
 1094DOPC   C4B12396  13.319   4.184   5.982
 1095DOPC   NC312397  24.409   7.964   6.702
 1095DOPC   PO412398  24.669   7.474   6.592
 1095DOPC   GL112399  24.349   7.674   6.232
 1095DOPC   GL212400  24.539   7.914   6.252
 1095DOPC   C1A12401  24.119   7.964   5.952
 1095DOPC   D2A12402  24.139   8.314   5.602
 1095DOPC   C3A12403  24.179   8.194   5.212
 1095DOPC   C4A12404  24.519   8.264   4.892
 1095DOPC   C1B12405  24.659   8.364   6.312
 1095DOPC   D2B12406  24.589   8.844   6.402
 1095DOPC   C3B12407  24.789   9.164   6.202
 1095DOPC   C4B12408  24.799   9.154   5.802
 1096DOPC   NC312409   0.989  24.311   3.882
 1096DOPC   PO412410   0.809  24.591   3.972
 1096DOPC   GL112411   0.819  24.981   4.222
 1096DOPC   GL212412   0.899  25.321   4.092
 1096DOPC   C1A12413   0.789  25.111   4.622
 1096DOPC   D2A12414   0.409  25.061   4.842
 1096DOPC   C3A12415   0.079  24.991   5.222
 1096DOPC   C4A12416  -0.329  24.941   5.442
 1096DOPC   C1B12417   0.689  25.551   4.352
 1096DOPC   D2B12418   0.649  25.531   4.722
 1096DOPC   C3B12419   1.039  25.671   5.082
 1096DOPC   C4B12420   1.169  25.941   5.372
 1097DOPC   NC312421  15.339  11.514   9.002
 1097DOPC   PO412422  15.589  11.314   8.752
 1097DOPC   GL112423  15.309  11.404   8.492
 1097DOPC   GL212424  15.379  11.264   8.252
 1097DOPC   C1A12425  14.879  11.514   8.262
 1097DOPC   D2A12426  14.959  11.474   7.712
 1097DOPC   C3A12427  14.899  11.634   7.232
 1097DOPC   C4A12428  14.759  12.084   7.112
 1097DOPC   C1B12429  15.199  11.024   7.952
 1097DOPC   D2B12430  14.789  10.934   7.752
 1097DOPC   C3B12431  14.549  11.294   7.452
 1097DOPC   C4B12432  14.429  11.584   7.062
 1098DOPC   NC312433   0.999   2.444   3.582
 1098DOPC   PO412434   0.679   2.704   3.592
 1098DOPC   GL112435   0.569   2.504   3.942
 1098DOPC   GL212436   0.849   2.424   4.082
 1098DOPC   C1A12437   0.339   2.604   4.412
 1098DOPC   D2A12438   0.459   2.424   4.762
 1098DOPC   C3A12439   0.149   2.414   5.122
 1098DOPC   C4A12440  -0.089   2.674   5.272
 1098DOPC   C1B12441   0.939   2.484   4.552
 1098DOPC   D2B12442   1.099   2.574   4.912
 1098DOPC   C3B12443   1.339   2.904   5.112
 1098DOPC   C4B12444   1.719   2.924   5.302
 1099DOPC   NC312445  22.929   4.954   3.452
 1099DOPC   PO412446  22.489   5.004   3.402
 1099DOPC   GL112447  22.429   4.894   3.762
 1099DOPC   GL212448  22.169   5.024   3.982
 1099DOPC   C1A12449  22.719   4.794   4.112
 1099DOPC   D2A12450  22.979   5.024   4.342
 1099DOPC   C3A12451  22.979   5.124   4.722
 1099DOPC   C4A12452  23.279   5.094   4.992
 1099DOPC   C1B12453  22.279   4.864   4.412
 1099DOPC   D2B12454  22.649   4.804   4.632
 1099DOPC   C3B12455  22.629   4.554   4.932
 1099DOPC   C4B12456  22.849   4.454   5.282
 1100DOPC   NC312457   0.249   6.184   3.002
 1100DOPC   PO412458  -0.109   6.504   2.912
 1100DOPC   GL112459   0.001   6.894   3.182
 1100DOPC   GL212460   0.109   6.674   3.412
 1100DOPC   C1A12461   0.031   7.194   3.492
 1100DOPC   D2A12462   0.289   7.324   3.842
 1100DOPC   C3A12463   0.339   7.704   4.032
 1100DOPC   C4A12464   0.179   7.754   4.402
 1100DOPC   C1B12465   0.139   6.784   3.802
 1100DOPC   D2B12466   0.349   6.964   4.152
 1100DOPC   C3B12467   0.709   6.694   4.252
 1100DOPC   C4B12468   1.099   6.674   4.012
 1101DOPC   NC312469   4.919  12.184   3.232
 1101DOPC   PO412470   4.929  11.994   3.722
 1101DOPC   GL112471   5.019  12.064   4.062
 1101DOPC   GL212472   5.019  12.294   4.222
 1101DOPC   C1A12473   5.339  11.944   4.412
 1101DOPC   D2A12474   5.369  11.954   4.932
 1101DOPC   C3A12475   5.739  12.114   5.142
 1101DOPC   C4A12476   6.149  12.224   5.372
 1101DOPC   C1B12477   5.299  12.464   4.522
 1101DOPC   D2B12478   5.669  12.764   4.662
 1101DOPC   C3B12479   5.969  12.594   4.972
 1101DOPC   C4B12480   6.219  12.354   4.852
 1102DOPC   NC312481  17.779  13.364   4.102
 1102DOPC   PO412482  18.139  13.124   3.972
 1102DOPC   GL112483  18.139  12.964   4.432
 1102DOPC   GL212484  18.459  12.894   4.552
 1102DOPC   C1A12485  17.769  12.904   4.692
 1102DOPC   D2A12486  17.689  12.954   5.122
 1102DOPC   C3A12487  17.889  12.894   5.512
 1102DOPC   C4A12488  18.199  12.604   5.872
 1102DOPC   C1B12489  18.599  12.864   4.882
 1102DOPC   D2B12490  18.619  12.664   5.272
 1102DOPC   C3B12491  18.619  12.824   5.762
 1102DOPC   C4B12492  18.529  12.864   6.182
 1103DOPC   NC312493  24.419   5.834   7.122
 1103DOPC   PO412494  24.549   6.244   6.962
 1103DOPC   GL112495  24.599   6.364   6.422
 1103DOPC   GL212496  24.849   6.504   6.432
 1103DOPC   C1A12497  24.729   6.054   6.152
 1103DOPC   D2A12498  24.969   5.944   5.722
 1103DOPC   C3A12499  24.849   6.314   5.432
 1103DOPC   C4A12500  24.999   6.744   5.502
 1103DOPC   C1B12501  24.919   6.454   5.932
 1103DOPC   D2B12502  25.339   6.234   5.692
 1103DOPC   C3B12503  25.239   5.924   5.352
 1103DOPC   C4B12504  24.899   5.774   5.202
 1104DOPC   NC312505  25.099   0.084   7.342
 1104DOPC   PO412506  24.979   0.434   7.462
 1104DOPC   GL112507  24.689   0.144   7.142
 1104DOPC   GL212508  24.289   0.264   7.122
 1104DOPC   C1A12509  24.619   0.164   6.662
 1104DOPC   D2A12510  24.849   0.364   6.282
 1104DOPC   C3A12511  25.079   0.104   5.972
 1104DOPC   C4A12512  25.159  -0.336   5.832
 1104DOPC   C1B12513  24.089   0.514   6.722
 1104DOPC   D2B12514  23.939   0.854   6.402
 1104DOPC   C3B12515  24.169   1.054   6.032
 1104DOPC   C4B12516  24.269   1.304   5.652
 1105DOPC   NC312517  11.839   1.454   4.392
 1105DOPC   PO412518  11.409   1.354   4.382
 1105DOPC   GL112519  11.669   1.064   4.732
 1105DOPC   GL212520  11.999   1.124   4.862
 1105DOPC   C1A12521  11.709   0.914   5.272
 1105DOPC   D2A12522  11.419   1.004   5.572
 1105DOPC   C3A12523  11.459   0.634   5.862
 1105DOPC   C4A12524  11.689   0.444   6.142
 1105DOPC   C1B12525  12.229   1.104   5.192
 1105DOPC   D2B12526  12.399   1.184   5.672
 1105DOPC   C3B12527  12.569   0.854   5.912
 1105DOPC   C4B12528  12.639   0.574   6.172
 1106DOPC   NC312529  11.439   2.704   7.792
 1106DOPC   PO412530  11.049   2.654   7.662
 1106DOPC   GL112531  11.239   2.804   7.282
 1106DOPC   GL212532  11.269   3.124   7.102
 1106DOPC   C1A12533  11.499   2.624   7.012
 1106DOPC   D2A12534  11.649   2.634   6.622
 1106DOPC   C3A12535  11.889   2.414   6.352
 1106DOPC   C4A12536  12.159   2.214   6.552
 1106DOPC   C1B12537  11.059   2.884   6.802
 1106DOPC   D2B12538  11.329   2.864   6.382
 1106DOPC   C3B12539  11.439   2.524   6.172
 1106DOPC   C4B12540  11.569   2.194   5.882
 1107DOPC   NC312541  20.229   8.384   3.762
 1107DOPC   PO412542  20.159   7.924   3.772
 1107DOPC   GL112543  20.299   8.014   4.132
 1107DOPC   GL212544  20.569   8.254   4.112
 1107DOPC   C1A12545  20.079   7.704   4.482
 1107DOPC   D2A12546  20.179   7.394   4.872
 1107DOPC   C3A12547  20.569   7.314   5.002
 1107DOPC   C4A12548  20.899   6.964   5.162
 1107DOPC   C1B12549  20.529   8.194   4.542
 1107DOPC   D2B12550  20.689   8.164   4.842
 1107DOPC   C3B12551  20.569   8.344   5.242
 1107DOPC   C4B12552  20.309   8.604   5.442
 1108DOPC   NC312553  16.819   4.524  10.892
 1108DOPC   PO412554  16.549   4.354  11.212
 1108DOPC   GL112555  16.289   4.404  11.562
 1108DOPC   GL212556  16.389   4.734  11.652
 1108DOPC   C1A12557  16.039   4.314  11.902
 1108DOPC   D2A12558  15.809   4.244  12.242
 1108DOPC   C3A12559  15.999   3.894  12.402
 1108DOPC   C4A12560  16.409   3.734  12.342
 1108DOPC   C1B12561  16.019   4.794  11.982
 1108DOPC   D2B12562  15.929   4.644  12.422
 1108DOPC   C3B12563  15.549   4.594  12.622
 1108DOPC   C4B12564  15.259   4.404  12.472
 1109DOPC   NC312565  11.889   9.954   8.292
 1109DOPC   PO412566  11.899   9.464   8.102
 1109DOPC   GL112567  12.059   9.644   7.802
 1109DOPC   GL212568  12.369   9.524   7.822
 1109DOPC   C1A12569  12.169   9.904   7.382
 1109DOPC   D2A12570  12.209  10.184   6.922
 1109DOPC   C3A12571  11.829  10.384   6.962
 1109DOPC   C4A12572  11.619  10.794   6.802
 1109DOPC   C1B12573  12.659   9.554   7.542
 1109DOPC   D2B12574  12.609   9.854   7.152
 1109DOPC   C3B12575  12.719  10.074   6.742
 1109DOPC   C4B12576  12.689  10.484   6.512
 1110DOPC   NC312577   6.689  15.104   7.812
 1110DOPC   PO412578   7.049  14.994   8.042
 1110DOPC   GL112579   7.159  14.864   7.572
 1110DOPC   GL212580   6.949  15.074   7.392
 1110DOPC   C1A12581   7.109  14.554   7.422
 1110DOPC   D2A12582   6.989  14.424   7.052
 1110DOPC   C3A12583   7.319  14.504   6.662
 1110DOPC   C4A12584   7.339  14.674   6.162
 1110DOPC   C1B12585   6.599  15.254   7.112
 1110DOPC   D2B12586   6.599  15.204   6.592
 1110DOPC   C3B12587   6.229  15.344   6.392
 1110DOPC   C4B12588   6.169  15.664   6.072
 1111DOPC   NC312589   0.539  21.034   3.992
 1111DOPC   PO412590   0.409  20.644   3.912
 1111DOPC   GL112591   0.569  20.634   4.332
 1111DOPC   GL212592   0.849  20.644   4.272
 1111DOPC   C1A12593   0.699  20.674   4.732
 1111DOPC   D2A12594   0.709  20.704   5.162
 1111DOPC   C3A12595   0.329  20.804   5.332
 1111DOPC   C4A12596  -0.019  20.804   5.612
 1111DOPC   C1B12597   1.029  20.414   4.552
 1111DOPC   D2B12598   1.209  20.404   4.872
 1111DOPC   C3B12599   1.219  19.944   5.082
 1111DOPC   C4B12600   1.369  19.514   4.892
 1112DOPC   NC312601   8.639  15.274   8.902
 1112DOPC   PO412602   8.509  14.764   8.952
 1112DOPC   GL112603   8.679  14.894   8.472
 1112DOPC   GL212604   8.629  15.234   8.342
 1112DOPC   C1A12605   8.939  14.754   8.042
 1112DOPC   D2A12606   9.109  14.964   7.682
 1112DOPC   C3A12607   9.049  14.984   7.272
 1112DOPC   C4A12608   9.019  15.124   6.902
 1112DOPC   C1B12609   9.029  15.254   8.112
 1112DOPC   D2B12610   9.229  15.514   7.822
 1112DOPC   C3B12611   9.589  15.314   7.602
 1112DOPC   C4B12612   9.989  15.394   7.632
 1113DOPC   NC312613   1.119  23.351   3.962
 1113DOPC   PO412614   1.489  23.511   4.052
 1113DOPC   GL112615   1.719  23.781   4.302
 1113DOPC   GL212616   1.689  24.161   4.292
 1113DOPC   C1A12617   1.569  23.891   4.772
 1113DOPC   D2A12618   1.349  24.221   4.972
 1113DOPC   C3A12619   1.519  24.271   5.432
 1113DOPC   C4A12620   1.629  23.951   5.792
 1113DOPC   C1B12621   1.279  24.141   4.442
 1113DOPC   D2B12622   0.979  24.031   4.732
 1113DOPC   C3B12623   1.129  23.721   5.052
 1113DOPC   C4B12624   1.289  23.731   5.382
 1114DOPC   NC312625  17.769  17.944   7.482
 1114DOPC   PO412626  17.279  18.014   7.492
 1114DOPC   GL112627  17.009  17.784   7.232
 1114DOPC   GL212628  17.139  17.914   6.962
 1114DOPC   C1A12629  16.649  17.474   6.972
 1114DOPC   D2A12630  16.739  17.244   6.632
 1114DOPC   C3A12631  17.089  17.024   6.572
 1114DOPC   C4A12632  17.419  17.124   6.332
 1114DOPC   C1B12633  17.229  18.024   6.612
 1114DOPC   D2B12634  17.099  17.904   6.222
 1114DOPC   C3B12635  17.149  17.444   6.012
 1114DOPC   C4B12636  16.919  17.044   6.082
 1115DOPC   NC312637  21.399   3.324   3.052
 1115DOPC   PO412638  21.519   3.484   3.522
 1115DOPC   GL112639  21.859   3.704   3.742
 1115DOPC   GL212640  22.109   3.554   3.752
 1115DOPC   C1A12641  21.919   4.014   4.142
 1115DOPC   D2A12642  21.899   4.064   4.542
 1115DOPC   C3A12643  22.099   3.824   4.842
 1115DOPC   C4A12644  22.059   3.684   5.312
 1115DOPC   C1B12645  22.029   3.514   4.162
 1115DOPC   D2B12646  21.939   3.504   4.522
 1115DOPC   C3B12647  21.669   3.504   4.752
 1115DOPC   C4B12648  21.369   3.764   4.772
 1116DOPC   NC312649  11.499  19.464   4.642
 1116DOPC   PO412650  11.789  19.864   4.722
 1116DOPC   GL112651  11.909  19.824   5.182
 1116DOPC   GL212652  11.699  19.894   5.252
 1116DOPC   C1A12653  12.109  19.874   5.602
 1116DOPC   D2A12654  11.969  19.674   6.032
 1116DOPC   C3A12655  11.949  19.414   6.352
 1116DOPC   C4A12656  11.969  19.434   6.812
 1116DOPC   C1B12657  11.829  20.334   5.372
 1116DOPC   D2B12658  12.039  20.454   5.742
 1116DOPC   C3B12659  12.199  20.174   6.042
 1116DOPC   C4B12660  12.139  20.244   6.492
 1117DOPC   NC312661   3.669  22.801   7.402
 1117DOPC   PO412662   3.879  23.141   7.562
 1117DOPC   GL112663   3.699  23.191   7.102
 1117DOPC   GL212664   3.659  22.901   6.942
 1117DOPC   C1A12665   4.059  23.281   6.822
 1117DOPC   D2A12666   3.929  23.171   6.382
 1117DOPC   C3A12667   4.139  23.171   6.012
 1117DOPC   C4A12668   4.039  23.251   5.572
 1117DOPC   C1B12669   3.599  22.861   6.512
 1117DOPC   D2B12670   3.729  22.891   6.052
 1117DOPC   C3B12671   3.619  23.001   5.682
 1117DOPC   C4B12672   3.319  22.921   5.332
 1118DOPC   NC312673   7.809  12.354   3.722
 1118DOPC   PO412674   8.269  12.284   3.952
 1118DOPC   GL112675   7.999  12.194   4.192
 1118DOPC   GL212676   7.809  12.414   4.262
 1118DOPC   C1A12677   7.969  12.234   4.652
 1118DOPC   D2A12678   7.839  12.504   4.872
 1118DOPC   C3A12679   7.859  12.294   5.272
 1118DOPC   C4A12680   7.589  12.144   5.532
 1118DOPC   C1B12681   7.759  12.764   4.392
 1118DOPC   D2B12682   7.739  13.194   4.522
 1118DOPC   C3B12683   7.349  13.354   4.672
 1118DOPC   C4B12684   7.119  13.374   5.092
 1119DOPC   NC312685  12.339   8.234   4.332
 1119DOPC   PO412686  12.229   8.644   4.492
 1119DOPC   GL112687  12.229   8.364   4.782
 1119DOPC   GL212688  11.959   8.354   4.972
 1119DOPC   C1A12689  12.309   8.384   5.322
 1119DOPC   D2A12690  12.129   8.584   5.702
 1119DOPC   C3A12691  12.129   8.224   5.992
 1119DOPC   C4A12692  11.909   7.844   6.192
 1119DOPC   C1B12693  11.949   8.724   5.162
 1119DOPC   D2B12694  12.129   9.024   5.422
 1119DOPC   C3B12695  12.519   8.834   5.522
 1119DOPC   C4B12696  12.789   8.544   5.662
 1120DOPC   NC312697  13.819   5.094   4.322
 1120DOPC   PO412698  14.229   5.334   4.252
 1120DOPC   GL112699  14.049   5.254   4.732
 1120DOPC   GL212700  13.749   5.384   4.772
 1120DOPC   C1A12701  14.019   5.234   5.272
 1120DOPC   D2A12702  14.219   5.314   5.652
 1120DOPC   C3A12703  13.859   5.434   5.992
 1120DOPC   C4A12704  13.719   5.464   6.312
 1120DOPC   C1B12705  13.619   5.474   5.192
 1120DOPC   D2B12706  13.499   5.464   5.682
 1120DOPC   C3B12707  13.369   5.164   6.052
 1120DOPC   C4B12708  13.099   5.204   6.392
 1121DOPC   NC312709  12.949   3.354   4.002
 1121DOPC   PO412710  12.839   3.374   4.352
 1121DOPC   GL112711  12.849   3.484   4.772
 1121DOPC   GL212712  13.119   3.624   4.782
 1121DOPC   C1A12713  12.949   3.474   5.242
 1121DOPC   D2A12714  12.819   3.414   5.682
 1121DOPC   C3A12715  13.129   3.114   5.952
 1121DOPC   C4A12716  12.989   2.764   6.212
 1121DOPC   C1B12717  13.419   3.654   5.122
 1121DOPC   D2B12718  13.719   3.254   5.242
 1121DOPC   C3B12719  13.919   3.234   5.632
 1121DOPC   C4B12720  14.309   3.324   5.822
 1122DOPC   NC312721  17.639  23.311   3.782
 1122DOPC   PO412722  17.629  23.711   3.692
 1122DOPC   GL112723  17.759  23.761   4.112
 1122DOPC   GL212724  17.799  23.501   4.352
 1122DOPC   C1A12725  17.699  24.131   4.322
 1122DOPC   D2A12726  17.659  24.131   4.782
 1122DOPC   C3A12727  17.459  24.281   5.052
 1122DOPC   C4A12728  17.349  24.541   5.342
 1122DOPC   C1B12729  17.909  23.751   4.682
 1122DOPC   D2B12730  17.929  23.881   5.082
 1122DOPC   C3B12731  17.629  23.951   5.392
 1122DOPC   C4B12732  17.229  24.081   5.582
 1123DOPC   NC312733   9.759   4.464   3.842
 1123DOPC   PO412734   9.859   4.824   4.142
 1123DOPC   GL112735   9.909   4.844   4.522
 1123DOPC   GL212736   9.829   4.594   4.732
 1123DOPC   C1A12737   9.939   5.144   4.892
 1123DOPC   D2A12738   9.889   5.114   5.342
 1123DOPC   C3A12739   9.499   5.214   5.632
 1123DOPC   C4A12740   9.089   5.194   5.392
 1123DOPC   C1B12741  10.069   4.654   5.212
 1123DOPC   D2B12742   9.799   4.774   5.652
 1123DOPC   C3B12743   9.839   4.374   5.992
 1123DOPC   C4B12744   9.959   4.184   6.422
 1124DOPC   NC312745  25.229  18.234   3.652
 1124DOPC   PO412746  25.189  18.554   3.922
 1124DOPC   GL112747  24.989  18.614   4.252
 1124DOPC   GL212748  25.199  18.534   4.442
 1124DOPC   C1A12749  24.879  18.894   4.552
 1124DOPC   D2A12750  24.629  18.894   4.882
 1124DOPC   C3A12751  24.759  19.034   5.282
 1124DOPC   C4A12752  24.999  19.304   5.602
 1124DOPC   C1B12753  25.019  18.484   4.862
 1124DOPC   D2B12754  25.009  18.174   5.152
 1124DOPC   C3B12755  25.129  17.914   5.352
 1124DOPC   C4B12756  24.969  17.484   5.422
 1125DOPC   NC312757   6.819   9.894   7.192
 1125DOPC   PO412758   6.489  10.034   7.162
 1125DOPC   GL112759   6.359   9.864   6.772
 1125DOPC   GL212760   6.169   9.574   6.832
 1125DOPC   C1A12761   6.229   9.794   6.362
 1125DOPC   D2A12762   6.239   9.924   6.002
 1125DOPC   C3A12763   6.469   9.644   5.722
 1125DOPC   C4A12764   6.629   9.304   5.862
 1125DOPC   C1B12765   6.049   9.184   6.682
 1125DOPC   D2B12766   5.959   8.994   6.182
 1125DOPC   C3B12767   6.089   8.794   5.752
 1125DOPC   C4B12768   6.219   8.414   5.612
 1126DOPC   NC312769   5.469  13.034   3.782
 1126DOPC   PO412770   5.769  13.254   3.422
 1126DOPC   GL112771   5.919  13.314   3.912
 1126DOPC   GL212772   6.119  13.544   4.062
 1126DOPC   C1A12773   6.169  13.084   4.162
 1126DOPC   D2A12774   6.089  13.134   4.482
 1126DOPC   C3A12775   5.909  13.124   4.972
 1126DOPC   C4A12776   6.029  12.854   5.422
 1126DOPC   C1B12777   6.179  13.654   4.422
 1126DOPC   D2B12778   6.209  13.494   4.802
 1126DOPC   C3B12779   5.919  13.604   5.172
 1126DOPC   C4B12780   5.719  13.284   5.402
 1127DOPC   NC312781  16.099  20.964   7.812
 1127DOPC   PO412782  16.639  20.944   7.662
 1127DOPC   GL112783  16.669  20.814   7.212
 1127DOPC   GL212784  16.849  21.154   7.112
 1127DOPC   C1A12785  16.619  20.704   6.862
 1127DOPC   D2A12786  16.719  20.894   6.462
 1127DOPC   C3A12787  16.809  20.514   6.022
 1127DOPC   C4A12788  16.989  20.324   5.662
 1127DOPC   C1B12789  16.989  21.581   6.882
 1127DOPC   D2B12790  16.999  21.771   6.442
 1127DOPC   C3B12791  17.429  21.811   6.272
 1127DOPC   C4B12792  17.749  21.791   5.982
 1128DOPC   NC312793  14.069   9.824   8.752
 1128DOPC   PO412794  14.269   9.504   8.632
 1128DOPC   GL112795  14.329   9.574   8.212
 1128DOPC   GL212796  14.379   9.894   8.392
 1128DOPC   C1A12797  14.119   9.654   7.822
 1128DOPC   D2A12798  13.639   9.854   7.762
 1128DOPC   C3A12799  13.519  10.124   7.382
 1128DOPC   C4A12800  13.339  10.544   7.112
 1128DOPC   C1B12801  14.229  10.054   8.032
 1128DOPC   D2B12802  14.059  10.214   7.602
 1128DOPC   C3B12803  14.079   9.864   7.262
 1128DOPC   C4B12804  14.049   9.654   6.862
 1129DOPC   NC312805   6.099   5.624   7.492
 1129DOPC   PO412806   6.189   5.184   7.512
 1129DOPC   GL112807   6.379   5.384   7.112
 1129DOPC   GL212808   6.709   5.484   7.082
 1129DOPC   C1A12809   6.389   5.244   6.722
 1129DOPC   D2A12810   6.629   5.024   6.382
 1129DOPC   C3A12811   6.589   4.924   5.962
 1129DOPC   C4A12812   6.449   5.284   5.732
 1129DOPC   C1B12813   6.869   5.324   6.772
 1129DOPC   D2B12814   7.099   5.294   6.452
 1129DOPC   C3B12815   6.979   5.354   6.132
 1129DOPC   C4B12816   6.949   5.234   5.632
 1130DOPC   NC312817   4.869   7.924   2.652
 1130DOPC   PO412818   4.579   8.114   2.498
 1130DOPC   GL112819   4.499   8.194   2.962
 1130DOPC   GL212820   4.709   7.924   3.142
 1130DOPC   C1A12821   4.289   8.054   3.412
 1130DOPC   D2A12822   4.409   7.934   3.862
 1130DOPC   C3A12823   4.209   8.104   4.222
 1130DOPC   C4A12824   3.889   8.084   4.572
 1130DOPC   C1B12825   4.759   8.124   3.502
 1130DOPC   D2B12826   5.069   8.004   3.742
 1130DOPC   C3B12827   5.499   8.104   3.632
 1130DOPC   C4B12828   5.809   8.264   3.882
 1131DOPC   NC312829  22.269   1.174   3.542
 1131DOPC   PO412830  21.799   1.264   3.582
 1131DOPC   GL112831  21.699   1.244   3.962
 1131DOPC   GL212832  21.819   1.014   4.152
 1131DOPC   C1A12833  21.549   1.344   4.372
 1131DOPC   D2A12834  21.649   1.144   4.782
 1131DOPC   C3A12835  21.449   0.814   4.972
 1131DOPC   C4A12836  21.549   0.644   5.382
 1131DOPC   C1B12837  22.129   0.944   4.432
 1131DOPC   D2B12838  22.139   0.934   4.832
 1131DOPC   C3B12839  22.389   0.784   5.142
 1131DOPC   C4B12840  22.379   0.674   5.572
 1132DOPC   NC312841  15.919  18.854   4.052
 1132DOPC   PO412842  16.269  19.124   4.032
 1132DOPC   GL112843  16.339  18.764   4.362
 1132DOPC   GL212844  16.289  18.494   4.152
 1132DOPC   C1A12845  16.219  18.734   4.742
 1132DOPC   D2A12846  16.139  19.044   5.012
 1132DOPC   C3A12847  15.669  19.254   5.002
 1132DOPC   C4A12848  15.269  19.244   5.182
 1132DOPC   C1B12849  16.149  18.274   4.572
 1132DOPC   D2B12850  16.389  18.244   4.972
 1132DOPC   C3B12851  16.279  18.604   5.202
 1132DOPC   C4B12852  16.529  18.994   5.352
 1133DOPC   NC312853  22.399  13.644   3.422
 1133DOPC   PO412854  22.299  14.034   3.732
 1133DOPC   GL112855  22.589  14.124   4.132
 1133DOPC   GL212856  22.509  13.874   4.162
 1133DOPC   C1A12857  22.519  14.114   4.572
 1133DOPC   D2A12858  22.609  14.184   5.132
 1133DOPC   C3A12859  22.929  14.454   5.352
 1133DOPC   C4A12860  23.009  14.304   5.792
 1133DOPC   C1B12861  22.309  13.534   4.422
 1133DOPC   D2B12862  22.369  13.094   4.452
 1133DOPC   C3B12863  22.549  12.754   4.682
 1133DOPC   C4B12864  22.739  12.384   4.632
 1134DOPC   NC312865  16.899   3.654   3.972
 1134DOPC   PO412866  17.029   4.074   4.102
 1134DOPC   GL112867  17.029   4.004   4.472
 1134DOPC   GL212868  17.179   4.244   4.672
 1134DOPC   C1A12869  16.699   4.074   4.812
 1134DOPC   D2A12870  16.269   4.184   5.132
 1134DOPC   C3A12871  16.309   4.404   5.572
 1134DOPC   C4A12872  16.359   4.854   5.762
 1134DOPC   C1B12873  17.409   4.204   5.092
 1134DOPC   D2B12874  17.809   4.314   5.282
 1134DOPC   C3B12875  17.709   4.634   5.602
 1134DOPC   C4B12876  17.759   4.864   5.922
 1135DOPC   NC312877   6.819  10.724   3.282
 1135DOPC   PO412878   6.689  10.514   3.702
 1135DOPC   GL112879   6.969  10.644   4.152
 1135DOPC   GL212880   7.149  10.334   4.342
 1135DOPC   C1A12881   6.839  10.734   4.532
 1135DOPC   D2A12882   6.999  10.914   4.842
 1135DOPC   C3A12883   6.799  10.824   5.302
 1135DOPC   C4A12884   6.649  10.574   5.462
 1135DOPC   C1B12885   7.289  10.314   4.742
 1135DOPC   D2B12886   7.519  10.034   5.132
 1135DOPC   C3B12887   7.849  10.214   5.512
 1135DOPC   C4B12888   8.239  10.344   5.482
 1136DOPC   NC312889  24.009  16.284   3.942
 1136DOPC   PO412890  23.579  16.314   4.192
 1136DOPC   GL112891  23.629  16.334   4.622
 1136DOPC   GL212892  23.499  16.564   4.672
 1136DOPC   C1A12893  23.939  16.234   4.912
 1136DOPC   D2A12894  24.149  16.034   5.272
 1136DOPC   C3A12895  24.549  15.784   5.252
 1136DOPC   C4A12896  24.719  15.694   4.812
 1136DOPC   C1B12897  23.339  16.254   4.982
 1136DOPC   D2B12898  23.079  16.084   5.312
 1136DOPC   C3B12899  22.759  16.384   5.302
 1136DOPC   C4B12900  22.899  16.764   5.452
 1137DOPC   NC312901  24.029   1.904   3.642
 1137DOPC   PO412902  23.739   2.414   3.662
 1137DOPC   GL112903  23.849   2.274   4.002
 1137DOPC   GL212904  23.849   2.004   4.152
 1137DOPC   C1A12905  24.229   2.284   4.162
 1137DOPC   D2A12906  24.389   2.404   4.472
 1137DOPC   C3A12907  24.289   2.404   4.912
 1137DOPC   C4A12908  24.069   2.194   5.352
 1137DOPC   C1B12909  23.869   2.254   4.552
 1137DOPC   D2B12910  23.779   2.354   4.892
 1137DOPC   C3B12911  23.569   2.264   5.192
 1137DOPC   C4B12912  23.469   2.584   5.572
 1138DOPC   NC312913  21.019   0.264   7.972
 1138DOPC   PO412914  21.059   0.244   7.552
 1138DOPC   GL112915  20.929   0.374   7.152
 1138DOPC   GL212916  21.209   0.454   6.992
 1138DOPC   C1A12917  20.619   0.384   6.762
 1138DOPC   D2A12918  20.249   0.114   6.632
 1138DOPC   C3A12919  20.199  -0.206   6.232
 1138DOPC   C4A12920  20.459  -0.566   6.092
 1138DOPC   C1B12921  21.219   0.624   6.522
 1138DOPC   D2B12922  21.439   0.564   6.082
 1138DOPC   C3B12923  21.139   0.674   5.712
 1138DOPC   C4B12924  20.819   0.924   5.442
 1139DOPC   NC312925  21.009  20.314   7.552
 1139DOPC   PO412926  20.879  20.014   7.272
 1139DOPC   GL112927  20.779  20.004   6.842
 1139DOPC   GL212928  20.559  19.774   6.782
 1139DOPC   C1A12929  20.499  20.284   6.612
 1139DOPC   D2A12930  20.269  20.564   6.342
 1139DOPC   C3A12931  20.579  20.604   6.012
 1139DOPC   C4A12932  20.939  20.384   5.812
 1139DOPC   C1B12933  20.689  19.854   6.372
 1139DOPC   D2B12934  20.719  19.904   5.952
 1139DOPC   C3B12935  21.139  19.934   5.812
 1139DOPC   C4B12936  21.459  19.954   5.992
 1140DOPC   NC312937  14.119  10.524   9.172
 1140DOPC   PO412938  14.089  10.694   8.792
 1140DOPC   GL112939  14.059  10.704   8.392
 1140DOPC   GL212940  14.249  10.944   8.152
 1140DOPC   C1A12941  13.909  10.464   8.012
 1140DOPC   D2A12942  13.689  10.594   7.642
 1140DOPC   C3A12943  13.699  10.934   7.432
 1140DOPC   C4A12944  13.549  11.264   7.132
 1140DOPC   C1B12945  14.429  11.324   8.072
 1140DOPC   D2B12946  14.549  11.734   7.892
 1140DOPC   C3B12947  14.519  11.834   7.452
 1140DOPC   C4B12948  14.299  12.094   7.192
 1141DOPC   NC312949   1.029   8.594   2.488
 1141DOPC   PO412950   1.069   8.184   2.812
 1141DOPC   GL112951   1.159   8.174   3.262
 1141DOPC   GL212952   1.109   8.564   3.402
 1141DOPC   C1A12953   1.169   7.944   3.622
 1141DOPC   D2A12954   1.479   7.564   3.672
 1141DOPC   C3A12955   1.849   7.564   3.862
 1141DOPC   C4A12956   2.029   7.834   4.052
 1141DOPC   C1B12957   1.059   8.474   3.832
 1141DOPC   D2B12958   1.009   8.544   4.232
 1141DOPC   C3B12959   0.769   8.514   4.682
 1141DOPC   C4B12960   0.339   8.504   4.832
 1142DOPC   NC312961   4.919  12.884   7.772
 1142DOPC   PO412962   5.069  12.654   7.422
 1142DOPC   GL112963   5.179  12.724   6.942
 1142DOPC   GL212964   5.039  12.904   6.622
 1142DOPC   C1A12965   5.539  13.014   6.742
 1142DOPC   D2A12966   5.759  13.354   6.602
 1142DOPC   C3A12967   5.799  13.324   6.162
 1142DOPC   C4A12968   5.769  13.774   5.952
 1142DOPC   C1B12969   4.979  12.764   6.202
 1142DOPC   D2B12970   4.959  12.714   5.832
 1142DOPC   C3B12971   5.299  12.434   5.572
 1142DOPC   C4B12972   5.719  12.434   5.552
 1143DOPC   NC312973   2.969  16.884   3.522
 1143DOPC   PO412974   3.109  16.504   3.752
 1143DOPC   GL112975   2.929  16.314   4.132
 1143DOPC   GL212976   2.559  16.274   4.172
 1143DOPC   C1A12977   2.949  16.034   4.542
 1143DOPC   D2A12978   2.949  16.094   4.942
 1143DOPC   C3A12979   2.979  15.724   5.212
 1143DOPC   C4A12980   2.699  15.334   5.312
 1143DOPC   C1B12981   2.689  16.444   4.632
 1143DOPC   D2B12982   2.569  16.574   5.082
 1143DOPC   C3B12983   2.879  16.414   5.332
 1143DOPC   C4B12984   2.979  16.384   5.822
 1144DOPC   NC312985   3.049   1.224   3.612
 1144DOPC   PO412986   3.359   1.544   3.842
 1144DOPC   GL112987   3.419   1.444   4.222
 1144DOPC   GL212988   3.699   1.734   4.302
 1144DOPC   C1A12989   3.319   1.524   4.602
 1144DOPC   D2A12990   3.039   1.374   4.812
 1144DOPC   C3A12991   2.889   1.244   5.252
 1144DOPC   C4A12992   2.949   0.804   5.482
 1144DOPC   C1B12993   3.909   1.924   4.612
 1144DOPC   D2B12994   3.999   2.354   4.592
 1144DOPC   C3B12995   3.989   2.524   5.052
 1144DOPC   C4B12996   4.069   2.744   5.372
 1145DOPC   NC312997   7.529  22.661   8.172
 1145DOPC   PO412998   7.679  23.051   8.022
 1145DOPC   GL112999   7.889  23.121   7.662
 1145DOPC   GL213000   8.209  23.061   7.532
 1145DOPC   C1A13001   7.869  23.161   7.192
 1145DOPC   D2A13002   7.939  23.151   6.752
 1145DOPC   C3A13003   8.219  23.051   6.432
 1145DOPC   C4A13004   8.629  23.121   6.342
 1145DOPC   C1B13005   8.319  22.961   7.172
 1145DOPC   D2B13006   8.599  23.091   6.932
 1145DOPC   C3B13007   8.889  23.341   7.172
 1145DOPC   C4B13008   9.099  23.261   7.572
 1146DOPC   NC313009  20.139  18.744   3.462
 1146DOPC   PO413010  20.069  19.144   3.712
 1146DOPC   GL113011  20.129  19.324   4.092
 1146DOPC   GL213012  20.489  19.514   4.202
 1146DOPC   C1A13013  19.889  19.354   4.382
 1146DOPC   D2A13014  19.749  19.734   4.582
 1146DOPC   C3A13015  19.729  19.824   5.022
 1146DOPC   C4A13016  19.579  20.134   5.222
 1146DOPC   C1B13017  20.269  19.654   4.592
 1146DOPC   D2B13018  20.209  20.004   4.942
 1146DOPC   C3B13019  20.109  19.794   5.332
 1146DOPC   C4B13020  19.979  20.064   5.562
 1147DOPC   NC313021  23.689  11.964   3.682
 1147DOPC   PO413022  24.029  12.214   3.722
 1147DOPC   GL113023  24.129  12.144   4.092
 1147DOPC   GL213024  24.079  12.494   4.132
 1147DOPC   C1A13025  24.399  11.884   4.422
 1147DOPC   D2A13026  24.239  11.524   4.712
 1147DOPC   C3A13027  24.439  11.524   5.072
 1147DOPC   C4A13028  24.559  11.504   5.502
 1147DOPC   C1B13029  23.839  12.334   4.462
 1147DOPC   D2B13030  23.959  11.894   4.602
 1147DOPC   C3B13031  23.569  11.614   4.632
 1147DOPC   C4B13032  23.399  11.224   4.612
 1148DOPC   NC313033  23.799  24.051   3.862
 1148DOPC   PO413034  23.389  23.951   3.932
 1148DOPC   GL113035  23.509  23.921   4.402
 1148DOPC   GL213036  23.289  23.961   4.662
 1148DOPC   C1A13037  23.739  24.181   4.732
 1148DOPC   D2A13038  23.759  24.221   5.172
 1148DOPC   C3A13039  23.589  24.131   5.532
 1148DOPC   C4A13040  23.529  23.881   5.852
 1148DOPC   C1B13041  23.299  23.951   5.042
 1148DOPC   D2B13042  23.639  23.761   5.232
 1148DOPC   C3B13043  23.689  23.471   5.532
 1148DOPC   C4B13044  23.879  23.341   6.002
 1149DOPC   NC313045  12.799   1.114   4.602
 1149DOPC   PO413046  12.749   0.704   4.342
 1149DOPC   GL113047  12.719   0.344   4.602
 1149DOPC   GL213048  12.369   0.324   4.782
 1149DOPC   C1A13049  12.969   0.254   4.962
 1149DOPC   D2A13050  13.049   0.604   5.222
 1149DOPC   C3A13051  12.689   0.814   5.392
 1149DOPC   C4A13052  12.279   0.654   5.532
 1149DOPC   C1B13053  12.549   0.374   5.212
 1149DOPC   D2B13054  12.619   0.324   5.662
 1149DOPC   C3B13055  13.029   0.484   5.742
 1149DOPC   C4B13056  13.499   0.504   5.742
 1150DOPC   NC313057   0.139  21.881   7.602
 1150DOPC   PO413058  -0.019  21.561   7.422
 1150DOPC   GL113059   0.219  21.721   7.112
 1150DOPC   GL213060   0.269  22.071   7.162
 1150DOPC   C1A13061   0.559  21.931   6.772
 1150DOPC   D2A13062   0.799  21.861   6.432
 1150DOPC   C3A13063   0.569  21.931   6.142
 1150DOPC   C4A13064   0.439  21.771   5.742
 1150DOPC   C1B13065   0.309  22.391   6.892
 1150DOPC   D2B13066   0.289  22.451   6.452
 1150DOPC   C3B13067   0.579  22.451   6.132
 1150DOPC   C4B13068   0.949  22.301   6.162
 1151DOPC   NC313069  22.179   9.134   3.252
 1151DOPC   PO413070  22.709   9.184   3.162
 1151DOPC   GL113071  22.849   9.144   3.602
 1151DOPC   GL213072  22.919   9.504   3.672
 1151DOPC   C1A13073  22.779   9.084   3.992
 1151DOPC   D2A13074  22.429   9.074   4.312
 1151DOPC   C3A13075  22.309   9.444   4.642
 1151DOPC   C4A13076  22.259   9.514   4.972
 1151DOPC   C1B13077  22.969   9.694   4.002
 1151DOPC   D2B13078  23.009  10.074   4.162
 1151DOPC   C3B13079  22.999  10.184   4.662
 1151DOPC   C4B13080  22.959  10.484   5.062
 1152DOPC   NC313081   4.369  24.941   7.642
 1152DOPC   PO413082   4.049  24.761   7.952
 1152DOPC   GL113083   3.919  25.021   7.522
 1152DOPC   GL213084   4.179  25.341   7.422
 1152DOPC   C1A13085   3.779  25.271   7.162
 1152DOPC   D2A13086   3.779  25.421   6.682
 1152DOPC   C3A13087   3.329  25.451   6.572
 1152DOPC   C4A13088   2.869  25.351   6.602
 1152DOPC   C1B13089   4.249  25.481   7.002
 1152DOPC   D2B13090   4.179  25.651   6.542
 1152DOPC   C3B13091   3.949  25.421   6.242
 1152DOPC   C4B13092   3.579  25.291   6.152
 1153DOPC   NC313093  17.639  25.311   3.252
 1153DOPC   PO413094  17.999  25.171   3.592
 1153DOPC   GL113095  18.079  25.111   3.992
 1153DOPC   GL213096  18.449  25.071   4.122
 1153DOPC   C1A13097  17.859  24.901   4.312
 1153DOPC   D2A13098  17.729  24.711   4.742
 1153DOPC   C3A13099  17.759  24.901   5.262
 1153DOPC   C4A13100  17.869  25.051   5.682
 1153DOPC   C1B13101  18.769  24.931   4.452
 1153DOPC   D2B13102  18.879  25.291   4.712
 1153DOPC   C3B13103  18.799  25.231   5.162
 1153DOPC   C4B13104  18.919  25.151   5.582
 1154DOPC   NC313105  18.359   5.354   4.542
 1154DOPC   PO413106  18.009   5.364   4.132
 1154DOPC   GL113107  17.819   5.474   4.512
 1154DOPC   GL213108  17.529   5.424   4.572
 1154DOPC   C1A13109  17.849   5.444   4.952
 1154DOPC   D2A13110  18.159   5.184   5.062
 1154DOPC   C3A13111  18.539   5.254   5.202
 1154DOPC   C4A13112  18.559   5.434   5.662
 1154DOPC   C1B13113  17.409   5.214   4.972
 1154DOPC   D2B13114  17.529   5.124   5.382
 1154DOPC   C3B13115  17.359   5.164   5.722
 1154DOPC   C4B13116  17.439   5.164   6.182
 1155DOPC   NC313117   8.659  10.504   8.862
 1155DOPC   PO413118   8.579  10.334   8.382
 1155DOPC   GL113119   8.609  10.444   7.952
 1155DOPC   GL213120   8.649  10.144   7.832
 1155DOPC   C1A13121   8.889  10.564   7.592
 1155DOPC   D2A13122   8.869  10.574   7.172
 1155DOPC   C3A13123   9.059  10.394   6.832
 1155DOPC   C4A13124   9.069   9.954   6.732
 1155DOPC   C1B13125   8.789  10.114   7.372
 1155DOPC   D2B13126   8.749   9.684   7.052
 1155DOPC   C3B13127   8.699   9.334   7.272
 1155DOPC   C4B13128   8.469   9.224   7.552
 1156DOPC   NC313129   2.429   2.564   3.702
 1156DOPC   PO413130   2.829   2.504   3.782
 1156DOPC   GL113131   2.689   2.394   4.172
 1156DOPC   GL213132   2.349   2.364   4.202
 1156DOPC   C1A13133   2.689   1.954   4.342
 1156DOPC   D2A13134   2.679   1.484   4.452
 1156DOPC   C3A13135   2.549   1.404   4.912
 1156DOPC   C4A13136   2.319   1.394   5.192
 1156DOPC   C1B13137   2.259   2.054   4.542
 1156DOPC   D2B13138   2.609   1.904   4.802
 1156DOPC   C3B13139   2.709   2.344   5.142
 1156DOPC   C4B13140   2.589   2.544   5.532
 1157DOPC   NC313141   0.709  10.214   3.382
 1157DOPC   PO413142   0.689   9.794   3.512
 1157DOPC   GL113143   0.589   9.414   3.722
 1157DOPC   GL213144   0.479   9.084   3.572
 1157DOPC   C1A13145   0.559   9.114   4.112
 1157DOPC   D2A13146   0.799   8.984   4.282
 1157DOPC   C3A13147   1.039   9.064   4.722
 1157DOPC   C4A13148   1.449   9.144   4.772
 1157DOPC   C1B13149   0.839   8.964   3.752
 1157DOPC   D2B13150   1.299   8.944   3.952
 1157DOPC   C3B13151   1.509   9.174   4.232
 1157DOPC   C4B13152   1.779   9.324   4.532
 1158DOPC   NC313153  12.359   4.544   7.922
 1158DOPC   PO413154  12.759   4.324   8.072
 1158DOPC   GL113155  13.049   4.404   7.762
 1158DOPC   GL213156  13.289   4.144   7.842
 1158DOPC   C1A13157  13.099   4.374   7.312
 1158DOPC   D2A13158  13.309   4.474   6.932
 1158DOPC   C3A13159  13.229   4.494   6.552
 1158DOPC   C4A13160  13.209   4.684   6.132
 1158DOPC   C1B13161  13.499   4.374   7.562
 1158DOPC   D2B13162  13.729   4.504   7.202
 1158DOPC   C3B13163  13.639   4.864   6.922
 1158DOPC   C4B13164  13.619   4.954   6.482
 1159DOPC   NC313165   3.889  21.961   3.892
 1159DOPC   PO413166   4.069  21.761   4.062
 1159DOPC   GL113167   4.089  21.671   4.402
 1159DOPC   GL213168   4.089  21.264   4.492
 1159DOPC   C1A13169   4.249  21.651   4.792
 1159DOPC   D2A13170   4.339  21.891   5.262
 1159DOPC   C3A13171   4.619  21.721   5.572
 1159DOPC   C4A13172   4.539  21.611   5.962
 1159DOPC   C1B13173   4.059  21.204   4.952
 1159DOPC   D2B13174   3.769  21.074   5.232
 1159DOPC   C3B13175   3.349  21.244   5.292
 1159DOPC   C4B13176   2.919  21.411   5.172
 1160DOPC   NC313177  23.339   1.344   7.212
 1160DOPC   PO413178  23.769   1.184   7.392
 1160DOPC   GL113179  23.879   1.374   7.022
 1160DOPC   GL213180  23.979   1.614   7.212
 1160DOPC   C1A13181  23.709   1.474   6.572
 1160DOPC   D2A13182  23.839   1.514   6.262
 1160DOPC   C3A13183  24.059   1.884   6.372
 1160DOPC   C4A13184  24.009   2.314   6.302
 1160DOPC   C1B13185  24.189   1.724   6.812
 1160DOPC   D2B13186  24.539   1.704   6.562
 1160DOPC   C3B13187  24.779   1.474   6.202
 1160DOPC   C4B13188  24.669   1.064   5.922
 1161DOPC   NC313189  15.649   7.494   8.222
 1161DOPC   PO413190  15.739   7.884   8.252
 1161DOPC   GL113191  15.649   7.854   7.942
 1161DOPC   GL213192  15.609   7.634   7.692
 1161DOPC   C1A13193  15.399   8.054   7.602
 1161DOPC   D2A13194  15.349   8.224   7.192
 1161DOPC   C3A13195  15.019   8.554   6.952
 1161DOPC   C4A13196  14.589   8.564   7.032
 1161DOPC   C1B13197  15.729   7.544   7.212
 1161DOPC   D2B13198  15.599   7.474   6.862
 1161DOPC   C3B13199  15.259   7.654   6.552
 1161DOPC   C4B13200  15.229   7.954   6.212
 1162DOPC   NC313201  19.849   2.664   7.522
 1162DOPC   PO413202  19.499   2.494   7.472
 1162DOPC   GL113203  19.429   2.184   7.112
 1162DOPC   GL213204  19.329   2.394   6.812
 1162DOPC   C1A13205  19.309   1.794   6.812
 1162DOPC   D2A13206  19.469   1.604   6.512
 1162DOPC   C3A13207  19.939   1.444   6.522
 1162DOPC   C4A13208  20.189   1.624   6.202
 1162DOPC   C1B13209  19.339   2.194   6.382
 1162DOPC   D2B13210  19.269   1.804   6.112
 1162DOPC   C3B13211  19.029   1.494   6.312
 1162DOPC   C4B13212  18.629   1.534   6.322
 1163DOPC   NC313213   8.569   4.034   8.222
 1163DOPC   PO413214   8.769   3.584   8.212
 1163DOPC   GL113215   8.909   3.344   7.792
 1163DOPC   GL213216   9.229   3.334   7.742
 1163DOPC   C1A13217   8.959   3.214   7.362
 1163DOPC   D2A13218   9.279   3.164   7.002
 1163DOPC   C3A13219   9.329   3.184   6.522
 1163DOPC   C4A13220   9.099   2.984   6.052
 1163DOPC   C1B13221   9.439   3.514   7.342
 1163DOPC   D2B13222   9.499   3.564   6.852
 1163DOPC   C3B13223   9.659   3.584   6.442
 1163DOPC   C4B13224   9.659   3.294   6.102
 1164DOPC   NC313225  16.399  13.154   4.242
 1164DOPC   PO413226  16.349  13.354   4.712
 1164DOPC   GL113227  16.529  13.694   4.992
 1164DOPC   GL213228  16.379  13.914   5.102
 1164DOPC   C1A13229  16.879  13.684   5.232
 1164DOPC   D2A13230  17.349  13.724   5.492
 1164DOPC   C3A13231  17.789  13.834   5.652
 1164DOPC   C4A13232  18.189  13.984   5.902
 1164DOPC   C1B13233  16.519  14.024   5.402
 1164DOPC   D2B13234  16.549  14.254   5.782
 1164DOPC   C3B13235  16.219  14.254   6.112
 1164DOPC   C4B13236  15.949  14.054   6.432
 1165DOPC   NC313237  12.319  14.214   5.412
 1165DOPC   PO413238  12.599  14.494   5.342
 1165DOPC   GL113239  12.609  14.564   5.722
 1165DOPC   GL213240  12.949  14.594   5.762
 1165DOPC   C1A13241  12.619  14.804   6.152
 1165DOPC   D2A13242  12.579  14.954   6.582
 1165DOPC   C3A13243  12.689  15.404   6.682
 1165DOPC   C4A13244  12.689  15.864   6.472
 1165DOPC   C1B13245  12.929  14.414   6.192
 1165DOPC   D2B13246  13.089  14.104   6.412
 1165DOPC   C3B13247  13.099  14.004   6.782
 1165DOPC   C4B13248  13.299  13.674   6.992
 1166DOPC   NC313249  16.019  17.574   8.102
 1166DOPC   PO413250  15.819  17.984   8.182
 1166DOPC   GL113251  15.739  17.834   7.762
 1166DOPC   GL213252  15.679  17.554   7.702
 1166DOPC   C1A13253  15.359  18.024   7.612
 1166DOPC   D2A13254  15.199  18.394   7.492
 1166DOPC   C3A13255  15.429  18.564   7.152
 1166DOPC   C4A13256  15.769  18.764   6.922
 1166DOPC   C1B13257  15.429  17.604   7.302
 1166DOPC   D2B13258  15.629  17.444   6.882
 1166DOPC   C3B13259  15.409  17.234   6.672
 1166DOPC   C4B13260  14.969  16.984   6.542
 1167DOPC   NC313261  25.249   4.084   3.212
 1167DOPC   PO413262  24.809   4.114   3.002
 1167DOPC   GL113263  24.669   4.154   3.432
 1167DOPC   GL213264  24.419   4.114   3.522
 1167DOPC   C1A13265  24.899   4.444   3.782
 1167DOPC   D2A13266  25.179   4.614   4.082
 1167DOPC   C3A13267  25.479   4.584   4.462
 1167DOPC   C4A13268  25.806   4.864   4.652
 1167DOPC   C1B13269  24.579   4.014   4.002
 1167DOPC   D2B13270  24.429   4.004   4.382
 1167DOPC   C3B13271  24.389   3.584   4.502
 1167DOPC   C4B13272  24.389   3.144   4.472
 1168DOPC   NC313273   8.689  14.174   3.722
 1168DOPC   PO413274   8.299  14.314   3.942
 1168DOPC   GL113275   8.309  14.234   4.432
 1168DOPC   GL213276   7.959  14.134   4.492
 1168DOPC   C1A13277   8.329  14.244   4.872
 1168DOPC   D2A13278   8.209  14.314   5.222
 1168DOPC   C3A13279   8.399  14.184   5.592
 1168DOPC   C4A13280   8.779  14.254   5.842
 1168DOPC   C1B13281   7.789  14.154   4.872
 1168DOPC   D2B13282   7.619  14.204   5.172
 1168DOPC   C3B13283   7.569  13.924   5.542
 1168DOPC   C4B13284   7.489  13.714   5.942
 1169DOPC   NC313285  19.209  10.074   7.992
 1169DOPC   PO413286  18.929  10.434   8.042
 1169DOPC   GL113287  18.849  10.364   7.622
 1169DOPC   GL213288  19.109  10.194   7.512
 1169DOPC   C1A13289  18.579  10.434   7.222
 1169DOPC   D2A13290  18.209  10.714   7.052
 1169DOPC   C3A13291  18.289  10.904   6.692
 1169DOPC   C4A13292  18.319  10.784   6.312
 1169DOPC   C1B13293  18.679   9.944   7.372
 1169DOPC   D2B13294  18.209  10.004   7.322
 1169DOPC   C3B13295  18.219   9.964   6.882
 1169DOPC   C4B13296  17.949   9.884   6.552
 1170DOPC   NC313297   4.909  13.514   7.692
 1170DOPC   PO413298   5.179  13.144   7.452
 1170DOPC   GL113299   5.259  13.224   7.012
 1170DOPC   GL213300   5.529  13.404   7.042
 1170DOPC   C1A13301   5.239  13.374   6.562
 1170DOPC   D2A13302   5.449  13.594   6.312
 1170DOPC   C3A13303   5.209  13.784   5.922
 1170DOPC   C4A13304   4.959  13.564   5.602
 1170DOPC   C1B13305   5.189  13.734   6.912
 1170DOPC   D2B13306   5.009  14.104   6.792
 1170DOPC   C3B13307   4.809  14.364   6.492
 1170DOPC   C4B13308   4.769  14.784   6.412
 1171DOPC   NC313309   5.349   0.414   3.472
 1171DOPC   PO413310   5.619   0.064   3.662
 1171DOPC   GL113311   5.589   0.154   4.092
 1171DOPC   GL213312   5.489   0.004   4.362
 1171DOPC   C1A13313   5.359   0.494   4.402
 1171DOPC   D2A13314   5.359   0.494   4.882
 1171DOPC   C3A13315   5.279   0.804   5.262
 1171DOPC   C4A13316   5.339   1.104   5.542
 1171DOPC   C1B13317   5.159   0.004   4.672
 1171DOPC   D2B13318   5.019   0.244   5.072
 1171DOPC   C3B13319   5.019   0.064   5.512
 1171DOPC   C4B13320   4.819  -0.236   5.782
 1172DOPC   NC313321   7.509  15.414   4.112
 1172DOPC   PO413322   7.829  15.094   4.222
 1172DOPC   GL113323   7.699  15.164   4.722
 1172DOPC   GL213324   7.439  15.494   4.622
 1172DOPC   C1A13325   7.379  15.174   5.072
 1172DOPC   D2A13326   7.229  15.164   5.552
 1172DOPC   C3A13327   7.199  14.784   5.662
 1172DOPC   C4A13328   7.409  14.384   5.612
 1172DOPC   C1B13329   7.689  15.534   5.082
 1172DOPC   D2B13330   7.679  15.304   5.522
 1172DOPC   C3B13331   7.869  15.424   5.882
 1172DOPC   C4B13332   7.969  15.624   6.322
 1173DOPC   NC313333  16.419  20.184   8.132
 1173DOPC   PO413334  16.079  20.014   7.852
 1173DOPC   GL113335  15.809  20.334   7.542
 1173DOPC   GL213336  15.999  20.654   7.432
 1173DOPC   C1A13337  15.579  20.424   7.192
 1173DOPC   D2A13338  15.729  20.574   6.792
 1173DOPC   C3A13339  15.479  20.404   6.402
 1173DOPC   C4A13340  15.209  20.374   6.022
 1173DOPC   C1B13341  16.169  20.674   7.082
 1173DOPC   D2B13342  16.169  20.744   6.572
 1173DOPC   C3B13343  16.149  21.144   6.312
 1173DOPC   C4B13344  16.149  21.511   5.992
 1174DOPC   NC313345  11.589   4.264   4.432
 1174DOPC   PO413346  11.919   4.504   4.502
 1174DOPC   GL113347  12.009   4.684   4.842
 1174DOPC   GL213348  12.289   4.684   4.832
 1174DOPC   C1A13349  11.899   4.704   5.242
 1174DOPC   D2A13350  11.689   4.714   5.682
 1174DOPC   C3A13351  12.059   5.024   5.952
 1174DOPC   C4A13352  12.139   5.254   6.282
 1174DOPC   C1B13353  12.429   4.654   5.212
 1174DOPC   D2B13354  12.269   4.654   5.642
 1174DOPC   C3B13355  12.639   4.754   6.022
 1174DOPC   C4B13356  12.799   4.774   6.502
 1175DOPC   NC313357  16.139   7.374   8.382
 1175DOPC   PO413358  15.869   7.074   8.422
 1175DOPC   GL113359  15.889   6.904   8.042
 1175DOPC   GL213360  15.649   7.114   7.862
 1175DOPC   C1A13361  16.159   6.724   7.762
 1175DOPC   D2A13362  16.429   6.584   7.492
 1175DOPC   C3A13363  16.329   6.474   7.062
 1175DOPC   C4A13364  16.199   6.714   6.622
 1175DOPC   C1B13365  15.689   7.094   7.412
 1175DOPC   D2B13366  15.629   7.024   7.022
 1175DOPC   C3B13367  15.599   7.074   6.592
 1175DOPC   C4B13368  15.409   7.004   6.122
 1176DOPC   NC313369  24.799  18.944   3.862
 1176DOPC   PO413370  24.869  19.334   3.852
 1176DOPC   GL113371  25.059  19.284   4.282
 1176DOPC   GL213372  25.359  19.134   4.282
 1176DOPC   C1A13373  25.079  19.304   4.772
 1176DOPC   D2A13374  25.129  19.584   5.182
 1176DOPC   C3A13375  25.489  19.704   5.272
 1176DOPC   C4A13376  25.736  19.944   5.532
 1176DOPC   C1B13377  25.846  19.224   4.442
 1176DOPC   D2B13378  26.136  19.334   4.732
 1176DOPC   C3B13379  26.066  19.124   5.182
 1176DOPC   C4B13380  25.726  19.224   5.482
 1177DOPC   NC313381  20.629   5.204   3.552
 1177DOPC   PO413382  20.499   5.464   3.802
 1177DOPC   GL113383  20.539   5.344   4.202
 1177DOPC   GL213384  20.859   5.284   4.192
 1177DOPC   C1A13385  20.599   5.504   4.612
 1177DOPC   D2A13386  20.349   5.264   4.812
 1177DOPC   C3A13387  20.419   5.324   5.202
 1177DOPC   C4A13388  20.599   5.654   5.462
 1177DOPC   C1B13389  21.209   5.104   4.452
 1177DOPC   D2B13390  21.419   4.694   4.442
 1177DOPC   C3B13391  21.469   4.254   4.632
 1177DOPC   C4B13392  21.709   4.094   5.022
 1178DOPC   NC313393  15.949  12.374   4.412
 1178DOPC   PO413394  15.769  12.624   4.642
 1178DOPC   GL113395  15.689  12.614   5.222
 1178DOPC   GL213396  15.789  12.254   5.392
 1178DOPC   C1A13397  16.069  12.684   5.492
 1178DOPC   D2A13398  16.399  12.944   5.482
 1178DOPC   C3A13399  16.569  13.234   5.982
 1178DOPC   C4A13400  16.289  13.554   6.232
 1178DOPC   C1B13401  15.879  11.944   5.782
 1178DOPC   D2B13402  15.879  12.054   6.152
 1178DOPC   C3B13403  15.909  12.454   6.422
 1178DOPC   C4B13404  15.919  12.834   6.712
 1179DOPC   NC313405  18.409   3.514   4.032
 1179DOPC   PO413406  18.439   3.914   4.032
 1179DOPC   GL113407  18.349   3.754   4.442
 1179DOPC   GL213408  18.029   3.514   4.492
 1179DOPC   C1A13409  18.319   3.624   4.862
 1179DOPC   D2A13410  18.349   3.194   5.062
 1179DOPC   C3A13411  18.429   3.164   5.512
 1179DOPC   C4A13412  18.259   3.404   5.842
 1179DOPC   C1B13413  17.819   3.384   4.892
 1179DOPC   D2B13414  17.869   3.394   5.282
 1179DOPC   C3B13415  17.829   3.564   5.722
 1179DOPC   C4B13416  17.579   3.804   5.952
 1180DOPC   NC313417  22.909  11.394   3.322
 1180DOPC   PO413418  23.069  11.264   3.832
 1180DOPC   GL113419  23.299  10.924   3.952
 1180DOPC   GL213420  23.099  10.704   3.922
 1180DOPC   C1A13421  23.359  10.774   4.352
 1180DOPC   D2A13422  23.209  10.574   4.632
 1180DOPC   C3A13423  23.429  10.414   4.902
 1180DOPC   C4A13424  23.879  10.484   4.852
 1180DOPC   C1B13425  22.829  10.644   4.312
 1180DOPC   D2B13426  22.479  10.364   4.482
 1180DOPC   C3B13427  22.039  10.284   4.482
 1180DOPC   C4B13428  21.719  10.484   4.422
 1181DOPC   NC313429  18.519  15.484   4.032
 1181DOPC   PO413430  18.219  15.194   4.162
 1181DOPC   GL113431  18.069  15.454   4.592
 1181DOPC   GL213432  18.219  15.514   4.812
 1181DOPC   C1A13433  17.699  15.314   4.862
 1181DOPC   D2A13434  17.529  15.354   5.252
 1181DOPC   C3A13435  17.699  15.334   5.662
 1181DOPC   C4A13436  17.909  14.984   5.862
 1181DOPC   C1B13437  18.339  15.924   5.032
 1181DOPC   D2B13438  18.379  16.314   5.122
 1181DOPC   C3B13439  18.639  16.494   5.382
 1181DOPC   C4B13440  18.519  16.564   5.842
 1182DOPC   NC313441  22.299  22.811   3.362
 1182DOPC   PO413442  21.819  22.721   3.572
 1182DOPC   GL113443  21.899  22.621   3.972
 1182DOPC   GL213444  21.939  22.361   4.172
 1182DOPC   C1A13445  22.249  22.701   4.282
 1182DOPC   D2A13446  22.419  22.561   4.632
 1182DOPC   C3A13447  22.219  22.671   5.022
 1182DOPC   C4A13448  21.899  22.891   5.252
 1182DOPC   C1B13449  21.919  22.161   4.552
 1182DOPC   D2B13450  21.929  21.961   4.952
 1182DOPC   C3B13451  21.549  22.051   5.272
 1182DOPC   C4B13452  21.239  21.921   5.522
 1183DOPC   NC313453  16.729   3.784   8.362
 1183DOPC   PO413454  16.459   3.874   8.132
 1183DOPC   GL113455  16.289   3.824   7.772
 1183DOPC   GL213456  16.179   3.524   7.722
 1183DOPC   C1A13457  16.519   3.934   7.402
 1183DOPC   D2A13458  16.579   3.814   7.052
 1183DOPC   C3A13459  16.619   3.954   6.592
 1183DOPC   C4A13460  16.329   4.094   6.252
 1183DOPC   C1B13461  16.359   3.404   7.332
 1183DOPC   D2B13462  16.569   3.324   6.942
 1183DOPC   C3B13463  16.959   3.244   7.022
 1183DOPC   C4B13464  17.369   3.354   7.112
 1184DOPC   NC313465   8.149   3.464   3.992
 1184DOPC   PO413466   8.089   3.854   4.202
 1184DOPC   GL113467   8.469   3.704   4.342
 1184DOPC   GL213468   8.689   4.024   4.452
 1184DOPC   C1A13469   8.619   3.614   4.702
 1184DOPC   D2A13470   8.489   3.264   4.892
 1184DOPC   C3A13471   8.829   3.024   5.182
 1184DOPC   C4A13472   8.849   2.684   5.532
 1184DOPC   C1B13473   8.769   4.304   4.732
 1184DOPC   D2B13474   8.519   4.484   5.002
 1184DOPC   C3B13475   8.669   4.434   5.462
 1184DOPC   C4B13476   8.739   4.404   5.902
 1185DOPC   NC313477   2.439  20.654   4.002
 1185DOPC   PO413478   2.459  20.274   4.182
 1185DOPC   GL113479   2.209  20.434   4.472
 1185DOPC   GL213480   2.029  20.144   4.462
 1185DOPC   C1A13481   2.189  20.734   4.752
 1185DOPC   D2A13482   2.349  20.804   5.242
 1185DOPC   C3A13483   2.079  20.954   5.642
 1185DOPC   C4A13484   2.159  21.094   6.012
 1185DOPC   C1B13485   1.709  20.214   4.782
 1185DOPC   D2B13486   1.579  20.234   5.252
 1185DOPC   C3B13487   1.189  20.444   5.352
 1185DOPC   C4B13488   0.849  20.464   5.612
 1186DOPC   NC313489  20.079   9.774   3.512
 1186DOPC   PO413490  20.039   9.644   3.912
 1186DOPC   GL113491  20.189   9.484   4.342
 1186DOPC   GL213492  20.119   9.114   4.312
 1186DOPC   C1A13493  20.049   9.574   4.762
 1186DOPC   D2A13494  19.749   9.814   4.852
 1186DOPC   C3A13495  19.499   9.584   5.272
 1186DOPC   C4A13496  19.519   9.194   5.342
 1186DOPC   C1B13497  20.289   9.104   4.762
 1186DOPC   D2B13498  20.329   8.844   5.042
 1186DOPC   C3B13499  19.859   8.754   5.262
 1186DOPC   C4B13500  19.819   8.474   5.422
 1187DOPC   NC313501   6.519   2.564   7.612
 1187DOPC   PO413502   6.409   2.994   7.472
 1187DOPC   GL113503   6.439   3.264   7.102
 1187DOPC   GL213504   6.659   3.504   7.122
 1187DOPC   C1A13505   6.469   3.274   6.692
 1187DOPC   D2A13506   6.589   3.544   6.372
 1187DOPC   C3A13507   6.719   3.884   6.312
 1187DOPC   C4A13508   7.039   4.024   6.492
 1187DOPC   C1B13509   6.939   3.524   6.752
 1187DOPC   D2B13510   7.049   3.474   6.292
 1187DOPC   C3B13511   7.109   3.934   6.002
 1187DOPC   C4B13512   7.199   4.214   5.682
 1188DOPC   NC313513   7.719   8.354   3.712
 1188DOPC   PO413514   7.829   8.744   3.592
 1188DOPC   GL113515   7.749   8.764   4.012
 1188DOPC   GL213516   7.959   8.544   4.242
 1188DOPC   C1A13517   7.629   8.804   4.562
 1188DOPC   D2A13518   7.629   8.974   5.002
 1188DOPC   C3A13519   7.399   8.834   5.272
 1188DOPC   C4A13520   7.049   8.594   5.392
 1188DOPC   C1B13521   8.199   8.384   4.572
 1188DOPC   D2B13522   8.569   8.134   4.852
 1188DOPC   C3B13523   8.969   8.414   4.972
 1188DOPC   C4B13524   9.209   8.624   5.362
 1189DOPC   NC313525   3.529  24.741   7.782
 1189DOPC   PO413526   3.809  24.431   7.622
 1189DOPC   GL113527   4.049  24.591   7.292
 1189DOPC   GL213528   4.159  24.891   7.052
 1189DOPC   C1A13529   3.929  24.471   6.892
 1189DOPC   D2A13530   3.829  24.501   6.512
 1189DOPC   C3A13531   3.709  24.491   6.032
 1189DOPC   C4A13532   3.699  24.761   5.652
 1189DOPC   C1B13533   4.179  25.141   6.652
 1189DOPC   D2B13534   4.429  25.161   6.272
 1189DOPC   C3B13535   4.319  25.621   5.952
 1189DOPC   C4B13536   4.079  25.891   5.672
 1190DOPC   NC313537   1.519  12.154   3.702
 1190DOPC   PO413538   1.509  12.514   3.642
 1190DOPC   GL113539   1.619  12.564   4.062
 1190DOPC   GL213540   1.359  12.414   4.282
 1190DOPC   C1A13541   1.779  12.934   4.352
 1190DOPC   D2A13542   2.029  13.204   4.522
 1190DOPC   C3A13543   2.299  13.214   4.892
 1190DOPC   C4A13544   2.319  13.344   5.322
 1190DOPC   C1B13545   1.489  12.514   4.742
 1190DOPC   D2B13546   1.649  12.654   5.132
 1190DOPC   C3B13547   1.489  12.374   5.492
 1190DOPC   C4B13548   1.579  12.084   5.802
 1191DOPC   NC313549  16.649  10.384   8.522
 1191DOPC   PO413550  16.389  10.124   8.262
 1191DOPC   GL113551  16.329   9.974   7.892
 1191DOPC   GL213552  16.029   9.964   7.782
 1191DOPC   C1A13553  16.399   9.894   7.412
 1191DOPC   D2A13554  16.259   9.594   7.072
 1191DOPC   C3A13555  15.899   9.474   6.942
 1191DOPC   C4A13556  15.529   9.324   6.892
 1191DOPC   C1B13557  15.919  10.244   7.322
 1191DOPC   D2B13558  15.869  10.394   6.912
 1191DOPC   C3B13559  16.109  10.384   6.572
 1191DOPC   C4B13560  16.439  10.204   6.282
 1192DOPC   NC313561  22.439  21.104   7.762
 1192DOPC   PO413562  22.739  21.024   7.432
 1192DOPC   GL113563  22.589  20.994   7.042
 1192DOPC   GL213564  22.229  20.884   6.862
 1192DOPC   C1A13565  22.669  20.974   6.602
 1192DOPC   D2A13566  22.699  20.934   6.112
 1192DOPC   C3A13567  22.859  20.654   5.832
 1192DOPC   C4A13568  23.099  20.304   5.552
 1192DOPC   C1B13569  22.219  20.944   6.432
 1192DOPC   D2B13570  22.359  21.314   6.182
 1192DOPC   C3B13571  22.599  21.521   5.862
 1192DOPC   C4B13572  22.659  21.521   5.522
 1193DOPC   NC313573  23.399   5.854   7.342
 1193DOPC   PO413574  23.589   6.234   7.452
 1193DOPC   GL113575  23.509   6.334   6.982
 1193DOPC   GL213576  23.739   6.174   6.772
 1193DOPC   C1A13577  23.269   6.294   6.612
 1193DOPC   D2A13578  23.399   6.254   6.262
 1193DOPC   C3A13579  23.769   6.164   6.212
 1193DOPC   C4A13580  24.109   6.064   6.182
 1193DOPC   C1B13581  23.839   6.584   6.532
 1193DOPC   D2B13582  23.919   7.014   6.342
 1193DOPC   C3B13583  23.729   7.134   6.012
 1193DOPC   C4B13584  23.809   7.174   5.542
 1194DOPC   NC313585  14.139   8.394   8.882
 1194DOPC   PO413586  14.389   8.174   8.442
 1194DOPC   GL113587  14.379   8.364   8.062
 1194DOPC   GL213588  14.069   8.474   7.872
 1194DOPC   C1A13589  14.239   8.024   7.692
 1194DOPC   D2A13590  13.849   7.824   7.582
 1194DOPC   C3A13591  13.509   8.054   7.492
 1194DOPC   C4A13592  13.219   7.894   7.102
 1194DOPC   C1B13593  14.079   8.754   7.572
 1194DOPC   D2B13594  14.179   8.854   7.162
 1194DOPC   C3B13595  13.979   8.794   6.772
 1194DOPC   C4B13596  13.619   9.054   6.862
 1195DOPC   NC313597   9.029  17.504   4.302
 1195DOPC   PO413598   9.489  17.374   4.322
 1195DOPC   GL113599   9.589  17.304   4.832
 1195DOPC   GL213600   9.869  17.254   5.082
 1195DOPC   C1A13601   9.489  17.024   5.212
 1195DOPC   D2A13602   9.449  17.234   5.682
 1195DOPC   C3A13603   9.229  17.104   6.042
 1195DOPC   C4A13604   9.109  16.884   6.342
 1195DOPC   C1B13605   9.919  17.414   5.452
 1195DOPC   D2B13606   9.659  17.574   5.952
 1195DOPC   C3B13607   9.999  17.584   6.302
 1195DOPC   C4B13608  10.399  17.724   6.622
 1196DOPC   NC313609   3.489  17.624   3.242
 1196DOPC   PO413610   3.189  17.444   3.712
 1196DOPC   GL113611   3.009  17.484   4.132
 1196DOPC   GL213612   2.709  17.414   4.052
 1196DOPC   C1A13613   2.729  17.554   4.492
 1196DOPC   D2A13614   2.379  17.614   4.782
 1196DOPC   C3A13615   2.479  17.774   5.242
 1196DOPC   C4A13616   2.409  17.594   5.552
 1196DOPC   C1B13617   2.319  17.314   4.282
 1196DOPC   D2B13618   2.059  17.234   4.632
 1196DOPC   C3B13619   2.479  17.074   4.762
 1196DOPC   C4B13620   2.849  16.924   4.882
 1197DOPC   NC313621   2.089  19.254   3.752
 1197DOPC   PO413622   2.449  19.354   3.922
 1197DOPC   GL113623   2.579  19.264   4.342
 1197DOPC   GL213624   2.549  19.444   4.692
 1197DOPC   C1A13625   2.679  18.944   4.602
 1197DOPC   D2A13626   2.629  18.624   4.722
 1197DOPC   C3A13627   2.269  18.704   4.972
 1197DOPC   C4A13628   2.029  18.534   5.292
 1197DOPC   C1B13629   2.339  19.444   5.152
 1197DOPC   D2B13630   2.129  19.454   5.502
 1197DOPC   C3B13631   2.199  19.214   5.862
 1197DOPC   C4B13632   2.169  18.914   6.212
 1198DOPC   NC313633  16.819   1.454   8.072
 1198DOPC   PO413634  16.459   1.724   7.902
 1198DOPC   GL113635  16.559   1.534   7.432
 1198DOPC   GL213636  16.449   1.314   7.152
 1198DOPC   C1A13637  16.949   1.394   7.192
 1198DOPC   D2A13638  17.259   1.164   6.992
 1198DOPC   C3A13639  17.389   1.094   6.602
 1198DOPC   C4A13640  17.549   1.274   6.292
 1198DOPC   C1B13641  16.559   1.044   6.872
 1198DOPC   D2B13642  16.919   0.794   6.732
 1198DOPC   C3B13643  17.119   0.834   6.302
 1198DOPC   C4B13644  17.159   1.004   5.972
 1199DOPC   NC313645   1.739  21.851   4.082
 1199DOPC   PO413646   2.109  22.081   3.892
 1199DOPC   GL113647   2.039  22.201   4.332
 1199DOPC   GL213648   1.839  22.041   4.552
 1199DOPC   C1A13649   1.869  22.531   4.672
 1199DOPC   D2A13650   1.569  22.881   4.642
 1199DOPC   C3A13651   1.429  23.011   4.902
 1199DOPC   C4A13652   1.209  23.121   5.312
 1199DOPC   C1B13653   1.689  22.141   4.982
 1199DOPC   D2B13654   1.749  22.191   5.342
 1199DOPC   C3B13655   1.429  22.331   5.572
 1199DOPC   C4B13656   0.979  22.511   5.472
 1200DOPC   NC313657   7.349  19.424   4.032
 1200DOPC   PO413658   7.659  19.584   4.422
 1200DOPC   GL113659   7.489  19.674   4.832
 1200DOPC   GL213660   7.649  20.014   4.962
 1200DOPC   C1A13661   7.309  19.634   5.252
 1200DOPC   D2A13662   7.379  19.414   5.612
 1200DOPC   C3A13663   7.319  19.154   5.982
 1200DOPC   C4A13664   7.029  18.854   6.082
 1200DOPC   C1B13665   7.759  19.964   5.342
 1200DOPC   D2B13666   7.529  19.954   5.682
 1200DOPC   C3B13667   7.109  19.834   5.652
 1200DOPC   C4B13668   7.009  19.634   6.002
 1201DOPC   NC313669  16.839   2.654   7.702
 1201DOPC   PO413670  17.079   2.274   7.702
 1201DOPC   GL113671  17.039   2.174   7.322
 1201DOPC   GL213672  16.869   1.914   7.212
 1201DOPC   C1A13673  17.349   2.324   7.002
 1201DOPC   D2A13674  17.359   2.784   6.742
 1201DOPC   C3A13675  17.119   2.944   6.272
 1201DOPC   C4A13676  17.119   2.984   5.802
 1201DOPC   C1B13677  16.939   2.074   6.802
 1201DOPC   D2B13678  16.859   2.314   6.342
 1201DOPC   C3B13679  16.889   2.124   6.002
 1201DOPC   C4B13680  16.639   1.874   5.672
 1202DOPC   NC313681  13.359  25.671   7.912
 1202DOPC   PO413682  13.539  25.321   8.142
 1202DOPC   GL113683  13.699  25.341   7.802
 1202DOPC   GL213684  13.789  25.061   7.632
 1202DOPC   C1A13685  13.639  25.411   7.332
 1202DOPC   D2A13686  13.439  25.251   7.002
 1202DOPC   C3A13687  12.999  25.141   7.042
 1202DOPC   C4A13688  12.789  25.121   7.492
 1202DOPC   C1B13689  13.739  24.901   7.212
 1202DOPC   D2B13690  13.409  24.651   6.962
 1202DOPC   C3B13691  13.319  24.221   7.142
 1202DOPC   C4B13692  12.989  23.781   7.172
 1203DOPC   NC313693   3.619  20.184   4.362
 1203DOPC   PO413694   3.379  19.804   4.522
 1203DOPC   GL113695   3.029  19.734   4.732
 1203DOPC   GL213696   2.979  19.974   4.892
 1203DOPC   C1A13697   2.929  19.494   5.052
 1203DOPC   D2A13698   2.969  19.354   5.372
 1203DOPC   C3A13699   2.729  19.184   5.622
 1203DOPC   C4A13700   2.629  18.954   5.952
 1203DOPC   C1B13701   3.039  20.024   5.272
 1203DOPC   D2B13702   3.309  20.124   5.642
 1203DOPC   C3B13703   3.289  20.084   6.032
 1203DOPC   C4B13704   3.399  19.894   6.362
 1204DOPC   NC313705  21.769   5.934   3.682
 1204DOPC   PO413706  22.269   5.784   3.612
 1204DOPC   GL113707  22.289   5.544   3.962
 1204DOPC   GL213708  22.589   5.374   4.142
 1204DOPC   C1A13709  22.109   5.384   4.402
 1204DOPC   D2A13710  22.219   5.424   4.862
 1204DOPC   C3A13711  22.509   5.684   4.942
 1204DOPC   C4A13712  22.609   5.854   5.362
 1204DOPC   C1B13713  22.639   5.404   4.532
 1204DOPC   D2B13714  22.589   5.174   5.022
 1204DOPC   C3B13715  22.299   4.874   4.992
 1204DOPC   C4B13716  21.929   4.554   5.202
 1205DOPC   NC313717  23.249   1.594   3.232
 1205DOPC   PO413718  22.919   1.534   3.512
 1205DOPC   GL113719  23.069   1.574   3.972
 1205DOPC   GL213720  23.019   1.984   4.112
 1205DOPC   C1A13721  23.069   1.454   4.452
 1205DOPC   D2A13722  23.209   1.104   4.722
 1205DOPC   C3A13723  23.279   0.764   4.942
 1205DOPC   C4A13724  23.649   0.534   5.092
 1205DOPC   C1B13725  22.899   2.434   4.172
 1205DOPC   D2B13726  23.039   2.784   4.512
 1205DOPC   C3B13727  22.969   2.774   4.912
 1205DOPC   C4B13728  23.179   2.554   5.132
 1206DOPC   NC313729  18.319  13.924   3.722
 1206DOPC   PO413730  18.119  13.724   4.032
 1206DOPC   GL113731  18.259  13.564   4.362
 1206DOPC   GL213732  18.609  13.704   4.342
 1206DOPC   C1A13733  18.209  13.824   4.722
 1206DOPC   D2A13734  18.129  14.254   4.882
 1206DOPC   C3A13735  18.049  14.434   5.192
 1206DOPC   C4A13736  18.189  14.824   5.442
 1206DOPC   C1B13737  18.939  13.864   4.662
 1206DOPC   D2B13738  18.999  13.714   5.052
 1206DOPC   C3B13739  19.249  13.784   5.322
 1206DOPC   C4B13740  19.619  13.614   5.522
 1207DOPC   NC313741   5.199  15.964   3.672
 1207DOPC   PO413742   5.359  16.014   4.122
 1207DOPC   GL113743   5.389  16.354   4.392
 1207DOPC   GL213744   5.249  16.564   4.222
 1207DOPC   C1A13745   5.309  16.434   4.852
 1207DOPC   D2A13746   5.219  16.364   5.242
 1207DOPC   C3A13747   4.939  16.214   5.562
 1207DOPC   C4A13748   4.499  16.354   5.452
 1207DOPC   C1B13749   4.889  16.314   4.512
 1207DOPC   D2B13750   4.799  15.974   4.842
 1207DOPC   C3B13751   4.599  15.894   5.232
 1207DOPC   C4B13752   4.519  15.854   5.622
 1208DOPC   NC313753  24.229   8.244   3.062
 1208DOPC   PO413754  23.879   8.154   3.172
 1208DOPC   GL113755  23.549   8.104   3.512
 1208DOPC   GL213756  23.319   8.194   3.662
 1208DOPC   C1A13757  23.599   7.984   4.002
 1208DOPC   D2A13758  23.569   7.624   4.302
 1208DOPC   C3A13759  23.389   7.644   4.662
 1208DOPC   C4A13760  23.119   7.674   4.972
 1208DOPC   C1B13761  23.179   8.214   4.022
 1208DOPC   D2B13762  22.799   8.204   4.342
 1208DOPC   C3B13763  22.799   7.824   4.572
 1208DOPC   C4B13764  22.639   7.684   4.922
 1209DOPC   NC313765  22.779   7.604   7.242
 1209DOPC   PO413766  22.539   8.054   7.242
 1209DOPC   GL113767  22.409   8.224   6.852
 1209DOPC   GL213768  22.709   8.354   6.682
 1209DOPC   C1A13769  22.239   7.994   6.502
 1209DOPC   D2A13770  22.009   8.234   6.172
 1209DOPC   C3A13771  22.179   8.144   5.832
 1209DOPC   C4A13772  22.219   8.194   5.502
 1209DOPC   C1B13773  22.489   8.344   6.262
 1209DOPC   D2B13774  22.569   8.514   5.852
 1209DOPC   C3B13775  22.929   8.404   5.582
 1209DOPC   C4B13776  23.249   8.194   5.382
 1210DOPC   NC313777  24.129   1.444   3.692
 1210DOPC   PO413778  23.639   1.604   3.612
 1210DOPC   GL113779  23.559   1.564   4.162
 1210DOPC   GL213780  23.809   1.454   4.162
 1210DOPC   C1A13781  23.389   1.864   4.412
 1210DOPC   D2A13782  23.339   1.794   4.852
 1210DOPC   C3A13783  23.499   1.474   4.952
 1210DOPC   C4A13784  23.679   1.064   5.102
 1210DOPC   C1B13785  23.899   1.714   4.522
 1210DOPC   D2B13786  23.919   1.874   4.962
 1210DOPC   C3B13787  23.869   1.744   5.352
 1210DOPC   C4B13788  23.759   1.404   5.552
 1211DOPC   NC313789   3.219  12.174   3.832
 1211DOPC   PO413790   3.629  12.444   3.912
 1211DOPC   GL113791   3.889  12.364   4.282
 1211DOPC   GL213792   4.099  12.094   4.322
 1211DOPC   C1A13793   4.209  12.574   4.462
 1211DOPC   D2A13794   4.339  12.764   4.822
 1211DOPC   C3A13795   4.609  12.534   5.192
 1211DOPC   C4A13796   4.789  12.344   5.542
 1211DOPC   C1B13797   3.789  12.004   4.662
 1211DOPC   D2B13798   3.929  11.834   5.042
 1211DOPC   C3B13799   3.679  11.824   5.362
 1211DOPC   C4B13800   3.359  12.134   5.542
 1212DOPC   NC313801   9.179   2.184   3.912
 1212DOPC   PO413802   9.239   2.014   4.262
 1212DOPC   GL113803   9.049   1.874   4.582
 1212DOPC   GL213804   9.099   2.074   4.882
 1212DOPC   C1A13805   8.709   1.644   4.822
 1212DOPC   D2A13806   8.619   1.284   5.102
 1212DOPC   C3A13807   8.469   1.554   5.582
 1212DOPC   C4A13808   8.749   1.824   5.792
 1212DOPC   C1B13809   9.469   1.874   5.322
 1212DOPC   D2B13810   9.309   1.764   5.822
 1212DOPC   C3B13811   9.449   1.364   5.912
 1212DOPC   C4B13812   9.909   1.334   6.032
 1213DOPC   NC313813   1.509   2.744   7.122
 1213DOPC   PO413814   1.479   3.094   7.002
 1213DOPC   GL113815   1.339   3.294   6.702
 1213DOPC   GL213816   1.079   3.484   6.612
 1213DOPC   C1A13817   1.449   3.494   6.242
 1213DOPC   D2A13818   1.669   3.584   5.862
 1213DOPC   C3A13819   1.789   3.184   5.782
 1213DOPC   C4A13820   2.039   2.854   5.632
 1213DOPC   C1B13821   1.109   3.164   6.202
 1213DOPC   D2B13822   0.949   3.004   5.902
 1213DOPC   C3B13823   1.259   2.924   5.612
 1213DOPC   C4B13824   1.509   2.524   5.502
 1214DOPC   NC313825  21.259  24.631   4.222
 1214DOPC   PO413826  20.979  24.921   4.052
 1214DOPC   GL113827  21.029  25.161   4.452
 1214DOPC   GL213828  21.269  24.991   4.652
 1214DOPC   C1A13829  20.969  25.381   4.772
 1214DOPC   D2A13830  20.909  25.551   5.182
 1214DOPC   C3A13831  20.589  25.921   5.122
 1214DOPC   C4A13832  20.249  25.871   5.312
 1214DOPC   C1B13833  21.519  24.841   4.932
 1214DOPC   D2B13834  21.459  24.791   5.402
 1214DOPC   C3B13835  21.109  24.991   5.642
 1214DOPC   C4B13836  20.699  25.081   5.542
 1215DOPC   NC313837  22.979   2.484   7.172
 1215DOPC   PO413838  22.629   2.584   7.132
 1215DOPC   GL113839  22.719   2.654   6.712
 1215DOPC   GL213840  22.409   2.644   6.572
 1215DOPC   C1A13841  22.939   2.794   6.432
 1215DOPC   D2A13842  22.949   3.134   6.022
 1215DOPC   C3A13843  22.899   3.324   5.662
 1215DOPC   C4A13844  22.899   3.694   5.392
 1215DOPC   C1B13845  22.519   2.804   6.142
 1215DOPC   D2B13846  22.429   3.114   5.812
 1215DOPC   C3B13847  22.479   2.974   5.472
 1215DOPC   C4B13848  22.139   3.064   5.272
 1216DOPC   NC313849   6.939  18.224   7.972
 1216DOPC   PO413850   6.639  18.584   7.992
 1216DOPC   GL113851   6.369  18.674   7.662
 1216DOPC   GL213852   6.009  18.784   7.832
 1216DOPC   C1A13853   6.089  18.654   7.302
 1216DOPC   D2A13854   5.669  18.584   7.072
 1216DOPC   C3A13855   5.489  18.164   7.222
 1216DOPC   C4A13856   5.129  17.934   7.522
 1216DOPC   C1B13857   5.679  18.504   7.602
 1216DOPC   D2B13858   5.229  18.514   7.432
 1216DOPC   C3B13859   5.199  18.564   6.882
 1216DOPC   C4B13860   5.259  18.724   6.442
 1217DOPC   NC313861   0.259  16.094   7.582
 1217DOPC   PO413862   0.389  16.544   7.642
 1217DOPC   GL113863   0.549  16.324   7.242
 1217DOPC   GL213864   0.469  15.984   7.062
 1217DOPC   C1A13865   0.379  16.464   6.982
 1217DOPC   D2A13866   0.049  16.354   6.952
 1217DOPC   C3A13867   0.069  15.814   6.822
 1217DOPC   C4A13868  -0.029  15.574   6.502
 1217DOPC   C1B13869   0.469  16.084   6.622
 1217DOPC   D2B13870   0.379  16.124   6.152
 1217DOPC   C3B13871   0.659  15.944   5.962
 1217DOPC   C4B13872   0.859  15.654   5.722
 1218DOPC   NC313873   2.589   9.764   2.882
 1218DOPC   PO413874   2.329   9.504   3.052
 1218DOPC   GL113875   2.419   9.414   3.562
 1218DOPC   GL213876   2.219   9.204   3.612
 1218DOPC   C1A13877   2.499   9.414   4.032
 1218DOPC   D2A13878   2.599   9.414   4.352
 1218DOPC   C3A13879   2.629   9.214   4.762
 1218DOPC   C4A13880   2.389   9.024   4.972
 1218DOPC   C1B13881   2.099   9.144   3.972
 1218DOPC   D2B13882   2.199   9.124   4.422
 1218DOPC   C3B13883   2.469   8.744   4.612
 1218DOPC   C4B13884   2.319   8.444   4.812
 1219DOPC   NC313885  20.869   8.894   7.002
 1219DOPC   PO413886  21.199   8.734   6.692
 1219DOPC   GL113887  21.129   8.644   6.332
 1219DOPC   GL213888  21.359   8.864   6.202
 1219DOPC   C1A13889  21.239   8.364   6.132
 1219DOPC   D2A13890  21.179   7.964   5.942
 1219DOPC   C3A13891  21.379   7.524   5.862
 1219DOPC   C4A13892  21.219   7.274   5.612
 1219DOPC   C1B13893  21.589   8.624   5.852
 1219DOPC   D2B13894  21.689   8.174   5.812
 1219DOPC   C3B13895  21.739   8.024   5.412
 1219DOPC   C4B13896  22.219   7.924   5.082
 1220DOPC   NC313897  21.489   6.404   3.522
 1220DOPC   PO413898  21.139   6.714   3.582
 1220DOPC   GL113899  21.349   6.564   4.022
 1220DOPC   GL213900  21.489   6.224   4.042
 1220DOPC   C1A13901  21.389   6.584   4.432
 1220DOPC   D2A13902  21.499   6.654   4.812
 1220DOPC   C3A13903  21.559   6.984   4.972
 1220DOPC   C4A13904  21.879   7.364   4.912
 1220DOPC   C1B13905  21.519   6.064   4.442
 1220DOPC   D2B13906  21.369   6.144   4.722
 1220DOPC   C3B13907  21.319   6.004   5.102
 1220DOPC   C4B13908  21.509   6.134   5.452
 1221DOPC   NC313909  13.739  14.424   5.312
 1221DOPC   PO413910  13.719  14.694   4.952
 1221DOPC   GL113911  13.609  14.954   5.392
 1221DOPC   GL213912  13.369  15.024   5.632
 1221DOPC   C1A13913  13.839  15.124   5.712
 1221DOPC   D2A13914  14.239  15.024   5.942
 1221DOPC   C3A13915  14.509  14.944   6.352
 1221DOPC   C4A13916  14.899  14.884   6.672
 1221DOPC   C1B13917  13.239  14.914   5.982
 1221DOPC   D2B13918  13.269  14.774   6.432
 1221DOPC   C3B13919  13.159  15.054   6.702
 1221DOPC   C4B13920  12.899  15.044   7.082
 1222DOPC   NC313921  22.199   9.914   3.262
 1222DOPC   PO413922  21.969   9.574   3.472
 1222DOPC   GL113923  22.249   9.544   3.732
 1222DOPC   GL213924  22.319   9.194   3.752
 1222DOPC   C1A13925  22.479   9.524   4.092
 1222DOPC   D2A13926  22.789   9.404   4.422
 1222DOPC   C3A13927  23.079   9.204   4.392
 1222DOPC   C4A13928  23.569   9.144   4.472
 1222DOPC   C1B13929  22.309   8.774   3.912
 1222DOPC   D2B13930  21.919   8.504   3.942
 1222DOPC   C3B13931  21.649   8.404   4.392
 1222DOPC   C4B13932  21.489   8.004   4.462
 1223DOPC   NC313933  10.579  25.311   7.962
 1223DOPC   PO413934  10.289  24.801   7.972
 1223DOPC   GL113935  10.429  24.901   7.502
 1223DOPC   GL213936  10.219  24.761   7.352
 1223DOPC   C1A13937  10.569  24.981   7.022
 1223DOPC   D2A13938  10.759  24.761   6.632
 1223DOPC   C3A13939  11.029  24.891   6.362
 1223DOPC   C4A13940  11.159  25.271   6.212
 1223DOPC   C1B13941  10.099  24.821   6.862
 1223DOPC   D2B13942  10.239  24.841   6.502
 1223DOPC   C3B13943  10.549  25.081   6.282
 1223DOPC   C4B13944  10.699  25.351   5.962
 1224DOPC   NC313945  24.239   7.794   3.302
 1224DOPC   PO413946  24.629   7.994   3.362
 1224DOPC   GL113947  24.809   7.894   3.632
 1224DOPC   GL213948  25.099   8.014   3.642
 1224DOPC   C1A13949  24.679   7.764   4.032
 1224DOPC   D2A13950  24.429   7.984   4.402
 1224DOPC   C3A13951  23.989   8.074   4.382
 1224DOPC   C4A13952  23.769   7.984   4.722
 1224DOPC   C1B13953  25.039   8.174   4.002
 1224DOPC   D2B13954  24.899   8.154   4.352
 1224DOPC   C3B13955  25.269   8.184   4.542
 1224DOPC   C4B13956  25.696   8.194   4.582
 1225DOPC   NC313957  18.959  21.324   8.262
 1225DOPC   PO413958  18.759  21.621   7.932
 1225DOPC   GL113959  18.719  21.521   7.452
 1225DOPC   GL213960  18.539  21.354   7.282
 1225DOPC   C1A13961  18.949  21.541   6.972
 1225DOPC   D2A13962  19.049  21.751   6.602
 1225DOPC   C3A13963  19.349  21.491   6.432
 1225DOPC   C4A13964  19.529  21.194   6.202
 1225DOPC   C1B13965  18.739  20.944   6.922
 1225DOPC   D2B13966  18.749  20.784   6.592
 1225DOPC   C3B13967  18.769  20.384   6.392
 1225DOPC   C4B13968  18.859  19.924   6.362
 1226DOPC   NC313969   7.809  23.881   4.362
 1226DOPC   PO413970   7.389  24.101   4.372
 1226DOPC   GL113971   7.389  24.151   4.842
 1226DOPC   GL213972   6.989  24.111   4.862
 1226DOPC   C1A13973   7.429  23.931   5.262
 1226DOPC   D2A13974   7.459  23.771   5.632
 1226DOPC   C3A13975   7.809  23.461   5.722
 1226DOPC   C4A13976   7.889  23.241   6.132
 1226DOPC   C1B13977   7.099  24.311   5.202
 1226DOPC   D2B13978   7.169  24.171   5.662
 1226DOPC   C3B13979   7.079  24.331   6.042
 1226DOPC   C4B13980   7.389  24.601   6.242
 1227DOPC   NC313981   5.529  21.691   3.972
 1227DOPC   PO413982   5.609  22.201   4.122
 1227DOPC   GL113983   5.509  21.961   4.412
 1227DOPC   GL213984   5.419  21.511   4.412
 1227DOPC   C1A13985   5.489  21.881   4.862
 1227DOPC   D2A13986   5.249  21.901   5.162
 1227DOPC   C3A13987   5.159  22.321   5.502
 1227DOPC   C4A13988   5.119  22.571   5.892
 1227DOPC   C1B13989   5.009  21.781   4.512
 1227DOPC   D2B13990   4.719  21.891   4.842
 1227DOPC   C3B13991   4.789  22.151   5.252
 1227DOPC   C4B13992   4.669  22.391   5.632
 1228DOPC   NC313993  19.479  17.064   3.692
 1228DOPC   PO413994  19.269  17.484   3.582
 1228DOPC   GL113995  19.179  17.834   3.952
 1228DOPC   GL213996  19.399  17.734   4.182
 1228DOPC   C1A13997  18.879  17.784   4.352
 1228DOPC   D2A13998  19.059  17.634   4.672
 1228DOPC   C3A13999  18.859  17.444   5.162
 1228DOPC   C4A14000  18.939  17.474   5.592
 1228DOPC   C1B14001  19.579  17.644   4.662
 1228DOPC   D2B14002  19.409  17.474   5.072
 1228DOPC   C3B14003  19.549  17.484   5.582
 1228DOPC   C4B14004  19.689  17.734   5.992
 1229DOPC   NC314005  10.119  14.244   4.912
 1229DOPC   PO414006   9.879  14.454   4.692
 1229DOPC   GL114007   9.649  14.404   5.082
 1229DOPC   GL214008   9.819  14.524   5.362
 1229DOPC   C1A14009   9.409  14.244   5.322
 1229DOPC   D2A14010   8.859  14.234   5.342
 1229DOPC   C3A14011   8.589  14.554   5.282
 1229DOPC   C4A14012   8.349  14.844   5.092
 1229DOPC   C1B14013   9.459  14.794   5.542
 1229DOPC   D2B14014   9.499  15.104   5.862
 1229DOPC   C3B14015   9.229  15.094   6.162
 1229DOPC   C4B14016   8.749  15.084   6.152
 1230DOPC   NC314017  21.619   4.084   7.332
 1230DOPC   PO414018  21.209   3.944   7.292
 1230DOPC   GL114019  21.359   3.784   6.872
 1230DOPC   GL214020  21.679   3.854   6.882
 1230DOPC   C1A14021  21.179   3.664   6.472
 1230DOPC   D2A14022  20.839   3.644   6.242
 1230DOPC   C3A14023  20.859   3.434   5.952
 1230DOPC   C4A14024  20.699   3.304   5.602
 1230DOPC   C1B14025  21.629   4.054   6.502
 1230DOPC   D2B14026  21.619   4.274   6.162
 1230DOPC   C3B14027  21.889   4.374   5.852
 1230DOPC   C4B14028  21.979   4.154   5.492
 1231DOPC   NC314029  18.459  18.454   7.092
 1231DOPC   PO414030  18.429  18.854   7.142
 1231DOPC   GL114031  18.409  18.754   6.692
 1231DOPC   GL214032  18.449  18.404   6.592
 1231DOPC   C1A14033  18.589  18.894   6.302
 1231DOPC   D2A14034  18.759  19.034   5.922
 1231DOPC   C3A14035  18.439  19.234   5.552
 1231DOPC   C4A14036  17.979  19.134   5.632
 1231DOPC   C1B14037  18.749  18.434   6.142
 1231DOPC   D2B14038  18.649  18.194   5.812
 1231DOPC   C3B14039  18.279  18.184   5.622
 1231DOPC   C4B14040  17.959  18.014   5.512
 1232DOPC   NC314041  18.909  17.034   3.442
 1232DOPC   PO414042  19.019  16.854   3.882
 1232DOPC   GL114043  19.069  16.814   4.292
 1232DOPC   GL214044  18.749  16.664   4.502
 1232DOPC   C1A14045  19.209  16.564   4.662
 1232DOPC   D2A14046  19.199  16.534   5.142
 1232DOPC   C3A14047  19.729  16.674   5.322
 1232DOPC   C4A14048  20.069  16.754   5.032
 1232DOPC   C1B14049  18.779  16.344   4.812
 1232DOPC   D2B14050  18.849  16.094   5.132
 1232DOPC   C3B14051  18.989  16.124   5.482
 1232DOPC   C4B14052  19.079  16.094   5.932
 1233DOPC   NC314053  17.309  24.341   3.702
 1233DOPC   PO414054  17.139  24.781   3.662
 1233DOPC   GL114055  17.089  24.911   4.092
 1233DOPC   GL214056  17.379  24.781   4.302
 1233DOPC   C1A14057  17.039  24.901   4.602
 1233DOPC   D2A14058  16.819  24.911   4.972
 1233DOPC   C3A14059  16.959  24.861   5.402
 1233DOPC   C4A14060  16.909  24.951   5.832
 1233DOPC   C1B14061  17.339  24.421   4.492
 1233DOPC   D2B14062  17.089  23.991   4.702
 1233DOPC   C3B14063  16.769  23.991   4.672
 1233DOPC   C4B14064  16.429  23.911   4.872
 1234DOPC   NC314065  18.629  24.821   7.662
 1234DOPC   PO414066  18.429  25.151   7.862
 1234DOPC   GL114067  18.399  25.301   7.432
 1234DOPC   GL214068  18.499  25.041   7.232
 1234DOPC   C1A14069  18.699  25.501   7.102
 1234DOPC   D2A14070  19.029  25.201   6.882
 1234DOPC   C3A14071  18.969  25.001   6.492
 1234DOPC   C4A14072  18.809  25.001   6.062
 1234DOPC   C1B14073  18.459  25.071   6.822
 1234DOPC   D2B14074  18.379  25.001   6.492
 1234DOPC   C3B14075  18.439  25.341   6.282
 1234DOPC   C4B14076  18.079  25.631   6.252
 1235DOPC   NC314077  25.666   9.294   3.172
 1235DOPC   PO414078  25.479   9.754   2.972
 1235DOPC   GL114079  25.349   9.864   3.352
 1235DOPC   GL214080  25.539   9.614   3.582
 1235DOPC   C1A14081  25.229   9.954   3.812
 1235DOPC   D2A14082  24.959   9.834   4.192
 1235DOPC   C3A14083  25.129   9.554   4.542
 1235DOPC   C4A14084  24.849   9.404   4.912
 1235DOPC   C1B14085  25.389   9.514   4.022
 1235DOPC   D2B14086  25.179   9.234   4.222
 1235DOPC   C3B14087  25.299   9.124   4.672
 1235DOPC   C4B14088  25.619   9.114   4.952
 1236DOPC   NC314089   0.639  12.254   3.662
 1236DOPC   PO414090   1.039  12.254   3.862
 1236DOPC   GL114091   0.869  12.254   4.222
 1236DOPC   GL214092   0.909  12.554   4.432
 1236DOPC   C1A14093   0.569  12.014   4.482
 1236DOPC   D2A14094   0.609  11.914   4.892
 1236DOPC   C3A14095   1.019  11.724   5.032
 1236DOPC   C4A14096   1.379  11.384   5.102
 1236DOPC   C1B14097   0.749  12.414   4.772
 1236DOPC   D2B14098   1.069  12.264   5.172
 1236DOPC   C3B14099   1.219  11.944   5.502
 1236DOPC   C4B14100   1.329  11.614   5.642
 1237DOPC   NC314101   6.459  15.534   4.422
 1237DOPC   PO414102   6.279  15.134   4.272
 1237DOPC   GL114103   6.319  15.024   4.612
 1237DOPC   GL214104   6.519  15.184   4.832
 1237DOPC   C1A14105   6.069  14.994   4.952
 1237DOPC   D2A14106   6.189  14.884   5.372
 1237DOPC   C3A14107   6.069  14.634   5.712
 1237DOPC   C4A14108   5.919  14.384   6.132
 1237DOPC   C1B14109   6.559  14.904   5.082
 1237DOPC   D2B14110   6.489  14.514   5.332
 1237DOPC   C3B14111   6.819  14.404   5.362
 1237DOPC   C4B14112   7.149  14.104   5.272
 1238DOPC   NC314113   6.889   5.734   3.962
 1238DOPC   PO414114   6.849   6.204   3.692
 1238DOPC   GL114115   6.769   6.474   4.102
 1238DOPC   GL214116   6.669   6.214   4.272
 1238DOPC   C1A14117   6.549   6.794   4.262
 1238DOPC   D2A14118   6.519   7.154   4.202
 1238DOPC   C3A14119   6.659   7.584   4.292
 1238DOPC   C4A14120   6.409   7.894   4.142
 1238DOPC   C1B14121   6.689   6.334   4.672
 1238DOPC   D2B14122   6.399   6.704   4.782
 1238DOPC   C3B14123   6.199   6.544   5.142
 1238DOPC   C4B14124   5.859   6.534   5.482
 1239DOPC   NC314125   4.279  19.424   4.542
 1239DOPC   PO414126   4.719  19.294   4.432
 1239DOPC   GL114127   4.809  19.164   4.842
 1239DOPC   GL214128   4.799  18.784   4.872
 1239DOPC   C1A14129   4.519  19.204   5.152
 1239DOPC   D2A14130   4.469  19.214   5.582
 1239DOPC   C3A14131   4.589  19.394   5.942
 1239DOPC   C4A14132   4.629  19.394   6.482
 1239DOPC   C1B14133   4.719  18.774   5.312
 1239DOPC   D2B14134   4.609  18.684   5.762
 1239DOPC   C3B14135   4.189  18.824   5.702
 1239DOPC   C4B14136   3.799  18.774   5.742
 1240DOPC   NC314137  24.019  18.104   3.582
 1240DOPC   PO414138  23.969  17.964   3.892
 1240DOPC   GL114139  23.829  18.054   4.312
 1240DOPC   GL214140  24.229  18.084   4.462
 1240DOPC   C1A14141  23.699  17.874   4.692
 1240DOPC   D2A14142  23.799  17.714   5.062
 1240DOPC   C3A14143  23.739  17.494   5.442
 1240DOPC   C4A14144  23.339  17.364   5.752
 1240DOPC   C1B14145  23.939  18.364   4.702
 1240DOPC   D2B14146  24.009  18.644   5.122
 1240DOPC   C3B14147  23.719  18.854   5.392
 1240DOPC   C4B14148  23.429  19.094   5.242
 1241DOPC   NC314149   5.099   2.574   4.072
 1241DOPC   PO414150   5.539   2.454   3.952
 1241DOPC   GL114151   5.609   2.544   4.382
 1241DOPC   GL214152   5.729   2.804   4.412
 1241DOPC   C1A14153   5.539   2.564   4.822
 1241DOPC   D2A14154   5.409   2.914   5.022
 1241DOPC   C3A14155   5.559   3.054   5.282
 1241DOPC   C4A14156   5.749   2.844   5.572
 1241DOPC   C1B14157   5.589   3.164   4.572
 1241DOPC   D2B14158   5.409   3.404   4.902
 1241DOPC   C3B14159   5.099   3.304   5.212
 1241DOPC   C4B14160   4.819   3.354   5.572
 1242DOPC   NC314161   2.929  22.361   3.732
 1242DOPC   PO414162   3.479  22.121   3.652
 1242DOPC   GL114163   3.569  22.301   4.192
 1242DOPC   GL214164   3.929  22.241   4.332
 1242DOPC   C1A14165   3.539  22.351   4.622
 1242DOPC   D2A14166   3.559  22.011   4.932
 1242DOPC   C3A14167   3.709  22.031   5.392
 1242DOPC   C4A14168   3.439  21.771   5.562
 1242DOPC   C1B14169   3.999  22.181   4.752
 1242DOPC   D2B14170   3.819  22.541   5.022
 1242DOPC   C3B14171   3.759  22.491   5.402
 1242DOPC   C4B14172   3.609  22.431   5.752
 1243DOPC   NC314173   6.719   0.914   3.992
 1243DOPC   PO414174   6.589   0.574   4.122
 1243DOPC   GL114175   6.459   0.304   4.462
 1243DOPC   GL214176   6.339   0.064   4.252
 1243DOPC   C1A14177   6.579   0.184   4.822
 1243DOPC   D2A14178   6.569   0.314   5.192
 1243DOPC   C3A14179   6.679   0.114   5.582
 1243DOPC   C4A14180   6.479   0.094   5.952
 1243DOPC   C1B14181   6.309  -0.176   4.682
 1243DOPC   D2B14182   6.429  -0.216   5.142
 1243DOPC   C3B14183   6.029  -0.056   5.362
 1243DOPC   C4B14184   5.679  -0.086   5.572
 1244DOPC   NC314185  21.229   9.164   3.282
 1244DOPC   PO414186  21.399   9.674   3.232
 1244DOPC   GL114187  21.509   9.504   3.632
 1244DOPC   GL214188  21.659   9.804   3.772
 1244DOPC   C1A14189  21.369   9.484   4.122
 1244DOPC   D2A14190  21.519   9.374   4.612
 1244DOPC   C3A14191  21.969   9.154   4.562
 1244DOPC   C4A14192  22.019   8.804   4.352
 1244DOPC   C1B14193  21.569   9.944   4.222
 1244DOPC   D2B14194  21.249  10.294   4.392
 1244DOPC   C3B14195  21.209  10.394   4.802
 1244DOPC   C4B14196  21.259  10.184   5.112
 1245DOPC   NC314197   6.719  -0.046   7.582
 1245DOPC   PO414198   6.569   0.274   7.352
 1245DOPC   GL114199   6.239   0.254   7.092
 1245DOPC   GL214200   5.869   0.094   7.062
 1245DOPC   C1A14201   6.499   0.294   6.612
 1245DOPC   D2A14202   6.669   0.444   6.282
 1245DOPC   C3A14203   6.369   0.664   5.932
 1245DOPC   C4A14204   6.279   0.694   5.442
 1245DOPC   C1B14205   5.529   0.224   6.822
 1245DOPC   D2B14206   5.119   0.234   6.532
 1245DOPC   C3B14207   5.189   0.674   6.332
 1245DOPC   C4B14208   5.369   0.804   5.972
 1246DOPC   NC314209   4.459  23.891   7.652
 1246DOPC   PO414210   4.229  23.541   7.632
 1246DOPC   GL114211   4.259  23.551   7.192
 1246DOPC   GL214212   4.459  23.801   7.162
 1246DOPC   C1A14213   4.409  23.601   6.712
 1246DOPC   D2A14214   4.709  23.591   6.422
 1246DOPC   C3A14215   4.669  23.251   6.172
 1246DOPC   C4A14216   4.919  22.911   6.182
 1246DOPC   C1B14217   4.549  24.081   6.822
 1246DOPC   D2B14218   4.859  24.381   6.692
 1246DOPC   C3B14219   5.109  24.511   6.292
 1246DOPC   C4B14220   5.089  24.481   5.892
 1247DOPC   NC314221  24.149   4.894   3.212
 1247DOPC   PO414222  24.039   4.484   3.432
 1247DOPC   GL114223  23.949   4.774   3.772
 1247DOPC   GL214224  23.769   4.614   3.992
 1247DOPC   C1A14225  23.849   5.084   4.102
 1247DOPC   D2A14226  23.609   5.484   4.242
 1247DOPC   C3A14227  23.339   5.454   4.692
 1247DOPC   C4A14228  22.989   5.514   5.022
 1247DOPC   C1B14229  23.879   4.684   4.412
 1247DOPC   D2B14230  23.979   5.104   4.592
 1247DOPC   C3B14231  23.779   5.224   4.952
 1247DOPC   C4B14232  23.529   5.584   5.212
 1248DOPC   NC314233  17.679  16.314   3.712
 1248DOPC   PO414234  17.159  16.314   3.772
 1248DOPC   GL114235  17.129  16.324   4.212
 1248DOPC   GL214236  17.169  16.104   4.392
 1248DOPC   C1A14237  17.149  16.634   4.562
 1248DOPC   D2A14238  17.219  16.674   5.022
 1248DOPC   C3A14239  17.159  17.024   5.162
 1248DOPC   C4A14240  16.769  17.254   5.232
 1248DOPC   C1B14241  17.249  16.174   4.832
 1248DOPC   D2B14242  16.949  16.044   5.312
 1248DOPC   C3B14243  16.729  16.524   5.412
 1248DOPC   C4B14244  16.689  16.914   5.632
 1249DOPC   NC314245  11.749  14.184   5.532
 1249DOPC   PO414246  12.029  13.764   5.442
 1249DOPC   GL114247  11.949  13.724   5.842
 1249DOPC   GL214248  12.019  13.934   5.972
 1249DOPC   C1A14249  11.939  13.464   6.222
 1249DOPC   D2A14250  11.829  13.214   6.632
 1249DOPC   C3A14251  11.509  13.304   6.892
 1249DOPC   C4A14252  11.469  13.514   7.262
 1249DOPC   C1B14253  12.009  14.074   6.332
 1249DOPC   D2B14254  12.019  14.074   6.722
 1249DOPC   C3B14255  11.659  14.094   6.952
 1249DOPC   C4B14256  11.439  14.014   7.362
 1250DOPC   NC314257  17.239   9.094   4.112
 1250DOPC   PO414258  16.949   9.014   4.402
 1250DOPC   GL114259  17.019   8.784   4.722
 1250DOPC   GL214260  16.909   8.444   4.852
 1250DOPC   C1A14261  17.159   8.814   5.102
 1250DOPC   D2A14262  17.279   8.864   5.552
 1250DOPC   C3A14263  17.169   8.674   5.892
 1250DOPC   C4A14264  17.039   8.384   6.222
 1250DOPC   C1B14265  17.039   8.294   5.252
 1250DOPC   D2B14266  17.009   8.204   5.732
 1250DOPC   C3B14267  17.409   8.224   5.902
 1250DOPC   C4B14268  17.629   8.574   5.742
 1251DOPC   NC314269   5.319  19.094   3.972
 1251DOPC   PO414270   5.299  19.464   4.272
 1251DOPC   GL114271   5.339  19.424   4.702
 1251DOPC   GL214272   5.389  19.184   4.832
 1251DOPC   C1A14273   5.129  19.524   5.142
 1251DOPC   D2A14274   4.829  19.654   5.382
 1251DOPC   C3A14275   4.659  20.084   5.442
 1251DOPC   C4A14276   4.299  20.404   5.512
 1251DOPC   C1B14277   5.229  18.754   5.142
 1251DOPC   D2B14278   5.259  18.674   5.602
 1251DOPC   C3B14279   5.149  18.464   6.022
 1251DOPC   C4B14280   5.029  18.294   6.462
 1252DOPC   NC314281  11.749  11.094   5.042
 1252DOPC   PO414282  11.439  10.824   4.922
 1252DOPC   GL114283  11.409  10.884   5.452
 1252DOPC   GL214284  11.729  10.774   5.532
 1252DOPC   C1A14285  11.189  10.664   5.712
 1252DOPC   D2A14286  11.059  10.194   5.722
 1252DOPC   C3A14287  10.839  10.004   6.002
 1252DOPC   C4A14288  10.499  10.054   6.252
 1252DOPC   C1B14289  11.619  10.554   5.962
 1252DOPC   D2B14290  11.789  10.344   6.382
 1252DOPC   C3B14291  12.249  10.344   6.412
 1252DOPC   C4B14292  12.539  10.104   6.272
 1253DOPC   NC314293   2.729  19.814   4.012
 1253DOPC   PO414294   2.339  19.734   4.312
 1253DOPC   GL114295   2.509  19.964   4.532
 1253DOPC   GL214296   2.519  19.884   4.942
 1253DOPC   C1A14297   2.549  20.354   4.852
 1253DOPC   D2A14298   2.519  20.264   5.262
 1253DOPC   C3A14299   2.819  20.434   5.482
 1253DOPC   C4A14300   2.879  20.454   5.892
 1253DOPC   C1B14301   2.049  19.894   5.182
 1253DOPC   D2B14302   1.659  19.764   5.282
 1253DOPC   C3B14303   1.509  19.584   5.632
 1253DOPC   C4B14304   1.669  19.244   5.802
 1254DOPC   NC314305  22.229  21.871   3.432
 1254DOPC   PO414306  22.059  21.471   3.422
 1254DOPC   GL114307  22.229  21.431   3.852
 1254DOPC   GL214308  22.519  21.441   3.992
 1254DOPC   C1A14309  21.999  21.294   4.152
 1254DOPC   D2A14310  21.559  21.294   4.302
 1254DOPC   C3A14311  21.599  21.184   4.692
 1254DOPC   C4A14312  21.879  21.184   4.992
 1254DOPC   C1B14313  22.659  21.471   4.392
 1254DOPC   D2B14314  22.429  21.334   4.682
 1254DOPC   C3B14315  22.039  21.461   4.602
 1254DOPC   C4B14316  21.609  21.681   4.632
 1255DOPC   NC314317  20.999  12.604   7.712
 1255DOPC   PO414318  20.949  13.134   7.812
 1255DOPC   GL114319  20.929  13.194   7.312
 1255DOPC   GL214320  20.589  13.324   7.222
 1255DOPC   C1A14321  21.129  12.964   7.042
 1255DOPC   D2A14322  21.299  12.514   6.892
 1255DOPC   C3A14323  21.009  12.364   6.652
 1255DOPC   C4A14324  20.639  12.154   6.542
 1255DOPC   C1B14325  20.539  13.264   6.922
 1255DOPC   D2B14326  20.259  12.874   6.722
 1255DOPC   C3B14327  20.309  12.714   6.372
 1255DOPC   C4B14328  20.739  12.614   6.222
 1256DOPC   NC314329   3.829  20.534   8.132
 1256DOPC   PO414330   3.909  20.894   7.862
 1256DOPC   GL114331   4.039  20.854   7.432
 1256DOPC   GL214332   3.819  20.664   7.262
 1256DOPC   C1A14333   4.279  20.754   7.042
 1256DOPC   D2A14334   4.319  20.634   6.652
 1256DOPC   C3A14335   4.619  20.624   6.322
 1256DOPC   C4A14336   4.729  20.424   5.932
 1256DOPC   C1B14337   3.819  20.594   6.832
 1256DOPC   D2B14338   3.649  20.404   6.382
 1256DOPC   C3B14339   3.829  20.124   6.092
 1256DOPC   C4B14340   4.269  20.034   5.922
 1257DOPC   NC314341   5.009   4.294   3.352
 1257DOPC   PO414342   5.169   4.404   3.742
 1257DOPC   GL114343   5.039   4.634   4.142
 1257DOPC   GL214344   5.219   4.894   4.132
 1257DOPC   C1A14345   5.089   4.854   4.572
 1257DOPC   D2A14346   5.129   4.904   4.972
 1257DOPC   C3A14347   5.229   4.624   5.282
 1257DOPC   C4A14348   5.629   4.694   5.572
 1257DOPC   C1B14349   5.469   4.544   4.322
 1257DOPC   D2B14350   5.729   4.454   4.582
 1257DOPC   C3B14351   5.599   4.484   5.002
 1257DOPC   C4B14352   5.509   4.214   5.452
 1258DOPC   NC314353  24.139  22.481   3.732
 1258DOPC   PO414354  23.709  22.771   3.742
 1258DOPC   GL114355  23.849  22.811   4.212
 1258DOPC   GL214356  23.909  23.121   4.362
 1258DOPC   C1A14357  23.599  22.861   4.602
 1258DOPC   D2A14358  23.219  22.981   4.922
 1258DOPC   C3A14359  23.299  22.971   5.322
 1258DOPC   C4A14360  23.379  23.121   5.732
 1258DOPC   C1B14361  23.919  23.531   4.502
 1258DOPC   D2B14362  23.989  23.741   4.922
 1258DOPC   C3B14363  24.109  23.471   5.202
 1258DOPC   C4B14364  24.249  23.381   5.662
 1259DOPC   NC314365  10.529   4.144   4.152
 1259DOPC   PO414366  10.389   3.844   4.322
 1259DOPC   GL114367  10.459   4.144   4.642
 1259DOPC   GL214368  10.119   4.174   4.682
 1259DOPC   C1A14369  10.659   4.204   5.072
 1259DOPC   D2A14370  10.659   4.474   5.392
 1259DOPC   C3A14371  10.739   4.354   5.702
 1259DOPC   C4A14372  10.669   4.544   6.112
 1259DOPC   C1B14373  10.079   4.154   5.092
 1259DOPC   D2B14374  10.189   4.084   5.572
 1259DOPC   C3B14375  10.169   3.624   5.762
 1259DOPC   C4B14376  10.129   3.214   6.002
 1260DOPC   NC314377  15.449   9.204   8.132
 1260DOPC   PO414378  15.209   8.904   7.992
 1260DOPC   GL114379  15.489   8.904   7.702
 1260DOPC   GL214380  15.709   9.184   7.682
 1260DOPC   C1A14381  15.759   8.594   7.452
 1260DOPC   D2A14382  16.109   8.474   7.262
 1260DOPC   C3A14383  16.279   8.214   7.022
 1260DOPC   C4A14384  16.119   8.134   6.622
 1260DOPC   C1B14385  15.979   9.064   7.312
 1260DOPC   D2B14386  15.939   8.954   6.942
 1260DOPC   C3B14387  15.699   9.014   6.552
 1260DOPC   C4B14388  15.589   8.734   6.152
 1261DOPC   NC314389  11.379  23.721   8.262
 1261DOPC   PO414390  11.159  24.161   8.152
 1261DOPC   GL114391  11.139  24.341   7.762
 1261DOPC   GL214392  11.009  24.571   7.452
 1261DOPC   C1A14393  11.459  24.401   7.492
 1261DOPC   D2A14394  11.849  24.451   7.632
 1261DOPC   C3A14395  12.219  24.361   7.422
 1261DOPC   C4A14396  12.469  24.701   7.272
 1261DOPC   C1B14397  10.709  24.491   7.252
 1261DOPC   D2B14398  10.319  24.441   6.962
 1261DOPC   C3B14399  10.409  24.361   6.522
 1261DOPC   C4B14400  10.549  24.601   6.142
 1262DOPC   NC314401  22.919  22.341   3.922
 1262DOPC   PO414402  22.709  21.971   3.592
 1262DOPC   GL114403  22.449  21.891   4.012
 1262DOPC   GL214404  22.499  22.201   4.272
 1262DOPC   C1A14405  22.069  21.801   4.132
 1262DOPC   D2A14406  21.689  21.771   4.042
 1262DOPC   C3A14407  21.489  22.041   4.282
 1262DOPC   C4A14408  21.409  22.131   4.732
 1262DOPC   C1B14409  22.339  21.851   4.602
 1262DOPC   D2B14410  22.239  21.661   5.062
 1262DOPC   C3B14411  22.409  21.194   5.182
 1262DOPC   C4B14412  22.709  20.924   4.902
 1263DOPC   NC314413  13.699  10.524   4.062
 1263DOPC   PO414414  13.849  10.324   4.522
 1263DOPC   GL114415  13.979  10.244   5.072
 1263DOPC   GL214416  13.739  10.104   5.222
 1263DOPC   C1A14417  14.099  10.154   5.582
 1263DOPC   D2A14418  13.989  10.174   6.022
 1263DOPC   C3A14419  13.789  10.254   6.512
 1263DOPC   C4A14420  13.709  10.234   6.912
 1263DOPC   C1B14421  13.759   9.824   5.582
 1263DOPC   D2B14422  14.109   9.704   5.902
 1263DOPC   C3B14423  14.199   9.474   6.192
 1263DOPC   C4B14424  14.289   8.954   6.302
 1264DOPC   NC314425   6.559  19.164   4.202
 1264DOPC   PO414426   6.779  18.964   4.502
 1264DOPC   GL114427   6.659  19.014   4.902
 1264DOPC   GL214428   7.049  19.084   4.922
 1264DOPC   C1A14429   6.609  18.764   5.242
 1264DOPC   D2A14430   6.289  18.444   5.382
 1264DOPC   C3A14431   6.139  18.384   5.912
 1264DOPC   C4A14432   6.329  18.604   6.272
 1264DOPC   C1B14433   7.319  19.074   5.262
 1264DOPC   D2B14434   7.209  18.884   5.582
 1264DOPC   C3B14435   6.769  19.074   5.712
 1264DOPC   C4B14436   6.549  19.084   6.112
 1265DOPC   NC314437  16.249   2.344   4.242
 1265DOPC   PO414438  16.639   2.594   4.132
 1265DOPC   GL114439  16.759   2.924   4.492
 1265DOPC   GL214440  16.709   3.334   4.362
 1265DOPC   C1A14441  16.639   3.194   4.852
 1265DOPC   D2A14442  16.269   3.254   5.022
 1265DOPC   C3A14443  16.189   3.224   5.362
 1265DOPC   C4A14444  15.949   3.284   5.702
 1265DOPC   C1B14445  16.819   3.604   4.732
 1265DOPC   D2B14446  16.889   3.884   5.192
 1265DOPC   C3B14447  17.029   3.704   5.602
 1265DOPC   C4B14448  17.149   3.514   6.092
 1266DOPC   NC314449  15.099  19.044   3.692
 1266DOPC   PO414450  15.069  18.994   4.142
 1266DOPC   GL114451  15.329  18.764   4.442
 1266DOPC   GL214452  15.589  18.994   4.372
 1266DOPC   C1A14453  15.549  18.754   4.842
 1266DOPC   D2A14454  15.489  18.804   5.352
 1266DOPC   C3A14455  15.839  18.954   5.502
 1266DOPC   C4A14456  16.249  18.954   5.722
 1266DOPC   C1B14457  15.879  19.204   4.542
 1266DOPC   D2B14458  16.329  19.234   4.552
 1266DOPC   C3B14459  16.729  19.474   4.362
 1266DOPC   C4B14460  17.179  19.744   4.322
 1267DOPC   NC314461   1.769  13.794   3.412
 1267DOPC   PO414462   1.619  13.474   3.682
 1267DOPC   GL114463   1.629  13.474   4.162
 1267DOPC   GL214464   1.409  13.214   4.392
 1267DOPC   C1A14465   1.709  13.594   4.522
 1267DOPC   D2A14466   1.789  13.684   4.912
 1267DOPC   C3A14467   1.479  13.624   5.282
 1267DOPC   C4A14468   1.129  13.804   5.512
 1267DOPC   C1B14469   1.479  13.004   4.822
 1267DOPC   D2B14470   1.599  13.204   5.122
 1267DOPC   C3B14471   1.889  13.024   5.362
 1267DOPC   C4B14472   2.049  13.094   5.802
 1268DOPC   NC314473   8.959  24.521   8.202
 1268DOPC   PO414474   8.829  24.691   7.812
 1268DOPC   GL114475   9.009  24.601   7.442
 1268DOPC   GL214476   9.049  24.261   7.512
 1268DOPC   C1A14477   8.729  24.591   7.092
 1268DOPC   D2A14478   8.899  24.351   6.812
 1268DOPC   C3A14479   8.579  24.091   6.682
 1268DOPC   C4A14480   8.129  23.931   6.612
 1268DOPC   C1B14481   9.319  24.391   7.132
 1268DOPC   D2B14482   9.559  24.011   6.872
 1268DOPC   C3B14483   9.929  23.991   6.582
 1268DOPC   C4B14484   9.939  24.241   6.222
 1269DOPC   NC314485  15.669   5.984   4.132
 1269DOPC   PO414486  16.019   5.964   4.382
 1269DOPC   GL114487  16.279   6.174   4.782
 1269DOPC   GL214488  16.479   6.064   4.972
 1269DOPC   C1A14489  16.309   6.424   5.192
 1269DOPC   D2A14490  16.349   6.344   5.622
 1269DOPC   C3A14491  16.639   6.694   5.832
 1269DOPC   C4A14492  16.959   6.974   5.862
 1269DOPC   C1B14493  16.729   5.784   5.182
 1269DOPC   D2B14494  17.069   5.894   5.492
 1269DOPC   C3B14495  17.419   6.244   5.442
 1269DOPC   C4B14496  17.819   6.414   5.222
 1270DOPC   NC314497   3.679  23.961   7.822
 1270DOPC   PO414498   3.339  23.721   7.702
 1270DOPC   GL114499   3.459  23.951   7.362
 1270DOPC   GL214500   3.379  23.691   7.102
 1270DOPC   C1A14501   3.489  24.271   7.092
 1270DOPC   D2A14502   3.369  24.561   6.842
 1270DOPC   C3A14503   2.899  24.551   6.712
 1270DOPC   C4A14504   2.419  24.611   6.582
 1270DOPC   C1B14505   3.539  23.461   6.612
 1270DOPC   D2B14506   3.839  23.671   6.432
 1270DOPC   C3B14507   4.159  23.611   6.202
 1270DOPC   C4B14508   4.419  23.901   5.942
 1271DOPC   NC314509  12.069  17.914   8.422
 1271DOPC   PO414510  12.249  18.394   8.452
 1271DOPC   GL114511  12.409  18.254   8.102
 1271DOPC   GL214512  12.509  17.984   8.142
 1271DOPC   C1A14513  12.519  18.484   7.692
 1271DOPC   D2A14514  12.509  18.564   7.312
 1271DOPC   C3A14515  12.709  18.684   6.942
 1271DOPC   C4A14516  12.739  18.904   6.552
 1271DOPC   C1B14517  12.329  17.944   7.712
 1271DOPC   D2B14518  12.489  18.074   7.262
 1271DOPC   C3B14519  12.359  17.964   6.932
 1271DOPC   C4B14520  12.479  18.064   6.552
 1272DOPC   NC314521  10.659  13.664   5.332
 1272DOPC   PO414522  10.519  14.124   5.212
 1272DOPC   GL114523  10.519  14.134   5.712
 1272DOPC   GL214524  10.789  14.324   5.842
 1272DOPC   C1A14525  10.469  13.854   5.982
 1272DOPC   D2A14526  10.189  13.494   6.282
 1272DOPC   C3A14527  10.049  13.734   6.682
 1272DOPC   C4A14528  10.179  14.184   6.762
 1272DOPC   C1B14529  10.499  14.624   5.952
 1272DOPC   D2B14530  10.179  14.714   6.242
 1272DOPC   C3B14531   9.949  14.824   6.532
 1272DOPC   C4B14532  10.019  15.154   6.842
 1273DOPC   NC314533  11.099  -0.176   3.972
 1273DOPC   PO414534  10.819  -0.006   4.282
 1273DOPC   GL114535  10.899   0.374   4.472
 1273DOPC   GL214536  11.189   0.334   4.612
 1273DOPC   C1A14537  10.729   0.544   4.922
 1273DOPC   D2A14538  10.769   0.484   5.332
 1273DOPC   C3A14539  10.429   0.674   5.462
 1273DOPC   C4A14540  10.229   0.854   5.892
 1273DOPC   C1B14541  11.029   0.124   5.012
 1273DOPC   D2B14542  10.829   0.004   5.452
 1273DOPC   C3B14543  10.749   0.304   5.832
 1273DOPC   C4B14544  10.629   0.594   6.132
 1274DOPC   NC314545   2.999   4.564   3.732
 1274DOPC   PO414546   2.789   4.214   3.682
 1274DOPC   GL114547   2.749   4.264   4.092
 1274DOPC   GL214548   2.519   4.524   4.072
 1274DOPC   C1A14549   2.759   4.184   4.442
 1274DOPC   D2A14550   2.899   4.004   4.862
 1274DOPC   C3A14551   3.269   4.064   4.862
 1274DOPC   C4A14552   3.699   4.304   4.902
 1274DOPC   C1B14553   2.189   4.314   4.092
 1274DOPC   D2B14554   1.859   4.254   4.412
 1274DOPC   C3B14555   1.849   4.544   4.672
 1274DOPC   C4B14556   1.879   4.874   4.872
 1275DOPC   NC314557   7.109   4.914   4.142
 1275DOPC   PO414558   7.109   4.524   4.102
 1275DOPC   GL114559   7.049   4.524   4.482
 1275DOPC   GL214560   7.349   4.714   4.552
 1275DOPC   C1A14561   7.039   4.734   4.922
 1275DOPC   D2A14562   6.829   5.034   5.212
 1275DOPC   C3A14563   6.459   4.864   5.442
 1275DOPC   C4A14564   6.119   4.774   5.782
 1275DOPC   C1B14565   7.609   4.864   4.832
 1275DOPC   D2B14566   7.869   5.154   5.202
 1275DOPC   C3B14567   7.799   5.004   5.632
 1275DOPC   C4B14568   7.559   4.684   5.832
 1276DOPC   NC314569  21.039  12.164   3.752
 1276DOPC   PO414570  20.889  11.904   4.052
 1276DOPC   GL114571  20.709  12.234   4.242
 1276DOPC   GL214572  20.389  12.364   4.352
 1276DOPC   C1A14573  20.789  12.104   4.692
 1276DOPC   D2A14574  20.689  11.804   5.022
 1276DOPC   C3A14575  20.329  11.634   4.892
 1276DOPC   C4A14576  19.959  11.414   4.882
 1276DOPC   C1B14577  20.429  12.724   4.732
 1276DOPC   D2B14578  20.449  13.064   5.112
 1276DOPC   C3B14579  20.879  12.934   5.342
 1276DOPC   C4B14580  21.279  12.794   5.302
 1277DOPC   NC314581   2.569   8.624   2.652
 1277DOPC   PO414582   2.249   8.904   2.572
 1277DOPC   GL114583   2.219   8.934   3.042
 1277DOPC   GL214584   2.509   8.924   3.232
 1277DOPC   C1A14585   2.089   8.654   3.402
 1277DOPC   D2A14586   1.789   8.834   3.722
 1277DOPC   C3A14587   1.869   8.814   4.202
 1277DOPC   C4A14588   1.939   8.784   4.632
 1277DOPC   C1B14589   2.689   8.944   3.672
 1277DOPC   D2B14590   2.869   9.364   3.792
 1277DOPC   C3B14591   2.939   9.674   4.092
 1277DOPC   C4B14592   3.199   9.814   4.362
 1278DOPC   NC314593   9.569   5.294   4.152
 1278DOPC   PO414594   9.889   5.354   3.902
 1278DOPC   GL114595  10.059   5.334   4.322
 1278DOPC   GL214596  10.339   5.284   4.542
 1278DOPC   C1A14597   9.919   5.544   4.612
 1278DOPC   D2A14598   9.959   5.714   5.012
 1278DOPC   C3A14599  10.069   5.564   5.452
 1278DOPC   C4A14600   9.839   5.574   5.772
 1278DOPC   C1B14601  10.399   5.104   4.972
 1278DOPC   D2B14602  10.409   4.994   5.362
 1278DOPC   C3B14603  10.629   4.924   5.752
 1278DOPC   C4B14604  11.019   4.944   6.022
 1279DOPC   NC314605  15.759  13.984   4.622
 1279DOPC   PO414606  15.329  14.004   4.642
 1279DOPC   GL114607  15.409  13.864   5.072
 1279DOPC   GL214608  15.139  13.834   5.352
 1279DOPC   C1A14609  15.529  14.234   5.352
 1279DOPC   D2A14610  15.979  14.354   5.522
 1279DOPC   C3A14611  15.999  14.624   5.832
 1279DOPC   C4A14612  15.699  14.834   6.122
 1279DOPC   C1B14613  15.239  13.984   5.792
 1279DOPC   D2B14614  15.229  14.224   6.302
 1279DOPC   C3B14615  15.139  14.424   6.712
 1279DOPC   C4B14616  15.199  14.524   7.142
 1280DOPC   NC314617  10.379   7.574   3.922
 1280DOPC   PO414618   9.999   7.644   4.182
 1280DOPC   GL114619   9.989   7.874   4.562
 1280DOPC   GL214620   9.639   7.904   4.752
 1280DOPC   C1A14621   9.999   8.104   5.032
 1280DOPC   D2A14622   9.859   7.894   5.422
 1280DOPC   C3A14623  10.039   7.964   5.802
 1280DOPC   C4A14624  10.329   8.034   6.102
 1280DOPC   C1B14625   9.889   7.594   4.962
 1280DOPC   D2B14626   9.809   7.394   5.372
 1280DOPC   C3B14627   9.839   7.474   5.762
 1280DOPC   C4B14628   9.559   7.374   6.182
 1281DOPC   NC314629   9.299   1.554   4.222
 1281DOPC   PO414630   9.729   1.404   4.162
 1281DOPC   GL114631   9.749   1.144   4.452
 1281DOPC   GL214632   9.779   1.414   4.702
 1281DOPC   C1A14633   9.539   1.024   4.832
 1281DOPC   D2A14634   9.489   1.254   5.272
 1281DOPC   C3A14635   9.749   1.474   5.572
 1281DOPC   C4A14636  10.069   1.964   5.562
 1281DOPC   C1B14637   9.479   1.594   4.952
 1281DOPC   D2B14638   9.069   1.484   5.152
 1281DOPC   C3B14639   8.999   1.834   5.392
 1281DOPC   C4B14640   8.659   2.204   5.442
 1282DOPC   NC314641   1.299  11.084   7.162
 1282DOPC   PO414642   1.579  11.404   7.272
 1282DOPC   GL114643   1.599  11.624   7.032
 1282DOPC   GL214644   1.989  11.774   7.152
 1282DOPC   C1A14645   1.649  12.044   6.842
 1282DOPC   D2A14646   1.409  12.234   6.562
 1282DOPC   C3A14647   1.639  12.484   6.152
 1282DOPC   C4A14648   1.849  12.614   5.782
 1282DOPC   C1B14649   2.099  11.924   6.752
 1282DOPC   D2B14650   2.479  12.174   6.602
 1282DOPC   C3B14651   2.739  12.544   6.502
 1282DOPC   C4B14652   3.019  12.974   6.512
 1283DOPC   NC314653  24.319   5.914   3.342
 1283DOPC   PO414654  24.459   5.544   3.412
 1283DOPC   GL114655  24.439   5.704   3.752
 1283DOPC   GL214656  24.179   5.784   3.922
 1283DOPC   C1A14657  24.589   5.724   4.202
 1283DOPC   D2A14658  24.389   6.034   4.482
 1283DOPC   C3A14659  24.749   6.124   4.842
 1283DOPC   C4A14660  25.049   6.384   4.732
 1283DOPC   C1B14661  24.259   5.394   4.202
 1283DOPC   D2B14662  24.519   5.194   4.522
 1283DOPC   C3B14663  24.389   5.024   4.912
 1283DOPC   C4B14664  24.159   4.784   5.012
 1284DOPC   NC314665  13.949  23.551   4.572
 1284DOPC   PO414666  14.149  23.251   4.232
 1284DOPC   GL114667  14.289  23.191   4.702
 1284DOPC   GL214668  14.639  23.401   4.882
 1284DOPC   C1A14669  14.209  23.341   5.092
 1284DOPC   D2A14670  14.249  23.461   5.512
 1284DOPC   C3A14671  14.299  23.251   5.832
 1284DOPC   C4A14672  14.289  23.071   6.212
 1284DOPC   C1B14673  14.909  23.261   5.132
 1284DOPC   D2B14674  15.249  23.271   5.422
 1284DOPC   C3B14675  15.509  22.991   5.552
 1284DOPC   C4B14676  16.009  23.111   5.542
 1285DOPC   NC314677  19.699   3.234   3.722
 1285DOPC   PO414678  19.779   3.024   4.152
 1285DOPC   GL114679  19.649   2.904   4.522
 1285DOPC   GL214680  19.499   3.084   4.612
 1285DOPC   C1A14681  19.829   2.844   5.022
 1285DOPC   D2A14682  20.039   2.784   5.422
 1285DOPC   C3A14683  20.529   2.814   5.552
 1285DOPC   C4A14684  20.889   2.644   5.282
 1285DOPC   C1B14685  19.229   3.134   4.982
 1285DOPC   D2B14686  18.909   2.894   5.182
 1285DOPC   C3B14687  18.919   2.924   5.612
 1285DOPC   C4B14688  18.799   2.614   5.862
 1286DOPC   NC314689  22.149  23.711   3.242
 1286DOPC   PO414690  21.919  23.551   3.572
 1286DOPC   GL114691  22.169  23.521   3.992
 1286DOPC   GL214692  22.469  23.251   4.082
 1286DOPC   C1A14693  22.089  23.261   4.332
 1286DOPC   D2A14694  21.859  22.881   4.602
 1286DOPC   C3A14695  21.509  22.911   4.952
 1286DOPC   C4A14696  21.429  22.671   5.302
 1286DOPC   C1B14697  22.499  23.051   4.522
 1286DOPC   D2B14698  22.219  23.131   4.842
 1286DOPC   C3B14699  22.279  23.211   5.262
 1286DOPC   C4B14700  22.359  23.031   5.672
 1287DOPC   NC314701   1.519  21.174   3.942
 1287DOPC   PO414702   1.279  21.621   3.902
 1287DOPC   GL114703   1.509  21.511   4.362
 1287DOPC   GL214704   1.529  21.234   4.532
 1287DOPC   C1A14705   1.529  21.631   4.782
 1287DOPC   D2A14706   1.519  21.761   5.312
 1287DOPC   C3A14707   1.399  21.451   5.552
 1287DOPC   C4A14708   1.159  21.334   5.872
 1287DOPC   C1B14709   1.559  21.224   5.032
 1287DOPC   D2B14710   1.699  21.004   5.362
 1287DOPC   C3B14711   1.789  20.634   5.502
 1287DOPC   C4B14712   1.519  20.434   5.752
 1288DOPC   NC314713  20.979   9.824  11.292
 1288DOPC   PO414714  20.689   9.444  11.192
 1288DOPC   GL114715  20.649   9.604  11.612
 1288DOPC   GL214716  20.569   9.464  11.852
 1288DOPC   C1A14717  20.679   9.894  12.092
 1288DOPC   D2A14718  20.489  10.304  12.172
 1288DOPC   C3A14719  20.449  10.244  12.582
 1288DOPC   C4A14720  20.489   9.964  12.942
 1288DOPC   C1B14721  20.239   9.224  11.832
 1288DOPC   D2B14722  19.759   9.084  12.092
 1288DOPC   C3B14723  19.579   8.684  12.222
 1288DOPC   C4B14724  19.839   8.494  12.442
 1289DOPC   NC314725  22.829  18.814   3.452
 1289DOPC   PO414726  23.159  19.074   3.342
 1289DOPC   GL114727  23.079  19.284   3.782
 1289DOPC   GL214728  23.269  19.124   3.952
 1289DOPC   C1A14729  23.189  19.634   4.042
 1289DOPC   D2A14730  22.999  19.914   4.352
 1289DOPC   C3A14731  22.709  19.914   4.622
 1289DOPC   C4A14732  22.849  19.854   5.092
 1289DOPC   C1B14733  23.599  18.924   4.302
 1289DOPC   D2B14734  23.739  18.814   4.712
 1289DOPC   C3B14735  23.549  18.494   5.002
 1289DOPC   C4B14736  23.619  18.134   5.252
 1290DOPC   NC314737   9.639  16.244   3.952
 1290DOPC   PO414738   9.329  16.554   4.152
 1290DOPC   GL114739   9.099  16.494   4.572
 1290DOPC   GL214740   8.849  16.654   4.622
 1290DOPC   C1A14741   9.129  16.294   4.932
 1290DOPC   D2A14742   9.199  16.034   5.232
 1290DOPC   C3A14743   9.649  16.014   5.362
 1290DOPC   C4A14744   9.829  15.764   5.602
 1290DOPC   C1B14745   8.569  16.774   4.932
 1290DOPC   D2B14746   8.289  16.544   5.252
 1290DOPC   C3B14747   8.329  16.534   5.652
 1290DOPC   C4B14748   8.249  16.964   5.842
 1291DOPC   NC314749  12.499   5.454   3.962
 1291DOPC   PO414750  12.379   5.454   4.292
 1291DOPC   GL114751  12.149   5.364   4.762
 1291DOPC   GL214752  12.329   5.644   4.932
 1291DOPC   C1A14753  12.259   5.144   5.052
 1291DOPC   D2A14754  12.239   5.124   5.392
 1291DOPC   C3A14755  12.619   4.974   5.572
 1291DOPC   C4A14756  13.049   4.874   5.662
 1291DOPC   C1B14757  12.379   5.754   5.462
 1291DOPC   D2B14758  12.669   6.044   5.532
 1291DOPC   C3B14759  12.389   6.074   5.862
 1291DOPC   C4B14760  12.069   6.154   6.192
 1292DOPC   NC314761  16.769  10.294   4.072
 1292DOPC   PO414762  16.929   9.994   4.312
 1292DOPC   GL114763  17.209  10.054   4.552
 1292DOPC   GL214764  17.299   9.724   4.682
 1292DOPC   C1A14765  17.439  10.194   4.872
 1292DOPC   D2A14766  17.409  10.184   5.272
 1292DOPC   C3A14767  17.329  10.594   5.422
 1292DOPC   C4A14768  17.009  10.944   5.312
 1292DOPC   C1B14769  17.099   9.854   5.022
 1292DOPC   D2B14770  17.129   9.754   5.352
 1292DOPC   C3B14771  17.129   9.934   5.762
 1292DOPC   C4B14772  16.999  10.254   6.022
 1293DOPC   NC314773  22.059   2.774   3.412
 1293DOPC   PO414774  22.379   3.114   3.532
 1293DOPC   GL114775  22.289   3.134   3.952
 1293DOPC   GL214776  22.469   2.784   4.122
 1293DOPC   C1A14777  22.339   3.214   4.422
 1293DOPC   D2A14778  22.609   3.084   4.752
 1293DOPC   C3A14779  22.389   2.794   4.972
 1293DOPC   C4A14780  22.149   2.524   5.162
 1293DOPC   C1B14781  22.599   2.554   4.542
 1293DOPC   D2B14782  22.579   2.364   4.842
 1293DOPC   C3B14783  22.689   2.524   5.282
 1293DOPC   C4B14784  23.009   2.884   5.522
 1294DOPC   NC314785   5.789  23.121   7.922
 1294DOPC   PO414786   6.129  22.801   7.952
 1294DOPC   GL114787   6.249  22.561   7.652
 1294DOPC   GL214788   6.079  22.371   7.552
 1294DOPC   C1A14789   6.439  22.681   7.252
 1294DOPC   D2A14790   6.549  22.931   6.912
 1294DOPC   C3A14791   6.209  23.231   6.932
 1294DOPC   C4A14792   5.879  23.631   6.972
 1294DOPC   C1B14793   6.029  22.321   7.152
 1294DOPC   D2B14794   6.099  22.271   6.712
 1294DOPC   C3B14795   5.809  22.281   6.382
 1294DOPC   C4B14796   5.629  21.861   6.042
 1295DOPC   NC314797   9.079  13.114   4.522
 1295DOPC   PO414798   9.419  12.944   4.262
 1295DOPC   GL114799   9.649  13.034   4.582
 1295DOPC   GL214800   9.559  13.244   4.762
 1295DOPC   C1A14801   9.709  12.774   4.942
 1295DOPC   D2A14802   9.489  12.524   5.222
 1295DOPC   C3A14803   9.449  12.534   5.672
 1295DOPC   C4A14804   9.549  12.274   6.032
 1295DOPC   C1B14805   9.329  13.114   5.092
 1295DOPC   D2B14806   9.019  13.304   5.372
 1295DOPC   C3B14807   8.769  13.154   5.622
 1295DOPC   C4B14808   8.809  12.784   5.862
 1296DOPC   NC314809   2.349  17.254   7.582
 1296DOPC   PO414810   2.279  17.664   7.292
 1296DOPC   GL114811   2.099  17.444   6.842
 1296DOPC   GL214812   1.679  17.504   6.762
 1296DOPC   C1A14813   2.369  17.244   6.532
 1296DOPC   D2A14814   2.749  17.024   6.472
 1296DOPC   C3A14815   2.859  16.724   6.722
 1296DOPC   C4A14816   2.769  16.424   7.062
 1296DOPC   C1B14817   1.389  17.274   6.572
 1296DOPC   D2B14818   1.539  17.264   6.182
 1296DOPC   C3B14819   1.799  17.374   5.822
 1296DOPC   C4B14820   2.059  17.144   5.642
 1297DOPC   NC314821   0.809   0.384   7.402
 1297DOPC   PO414822   1.229   0.214   7.382
 1297DOPC   GL114823   1.209   0.124   6.972
 1297DOPC   GL214824   1.089   0.294   6.912
 1297DOPC   C1A14825   1.469  -0.056   6.662
 1297DOPC   D2A14826   1.649  -0.116   6.352
 1297DOPC   C3A14827   1.509  -0.466   6.122
 1297DOPC   C4A14828   1.209  -0.776   6.042
 1297DOPC   C1B14829   1.099   0.454   6.522
 1297DOPC   D2B14830   0.969   0.434   6.132
 1297DOPC   C3B14831   0.929   0.254   5.812
 1297DOPC   C4B14832   1.039  -0.086   5.542
 1298DOPC   NC314833   8.929  14.354   4.522
 1298DOPC   PO414834   9.159  14.634   4.812
 1298DOPC   GL114835   9.109  14.184   4.952
 1298DOPC   GL214836   8.809  14.004   4.902
 1298DOPC   C1A14837   9.039  13.794   5.312
 1298DOPC   D2A14838   8.999  13.794   5.692
 1298DOPC   C3A14839   9.109  14.004   6.082
 1298DOPC   C4A14840   9.169  14.074   6.482
 1298DOPC   C1B14841   8.509  13.884   5.182
 1298DOPC   D2B14842   8.519  13.604   5.572
 1298DOPC   C3B14843   8.629  13.774   5.962
 1298DOPC   C4B14844   8.419  14.024   6.242
 1299DOPC   NC314845  25.199  11.774   3.752
 1299DOPC   PO414846  24.939  12.104   3.962
 1299DOPC   GL114847  24.889  12.044   4.402
 1299DOPC   GL214848  24.889  11.724   4.252
 1299DOPC   C1A14849  24.729  12.174   4.782
 1299DOPC   D2A14850  24.749  11.954   5.142
 1299DOPC   C3A14851  24.949  11.864   5.522
 1299DOPC   C4A14852  25.149  11.724   5.922
 1299DOPC   C1B14853  24.799  11.674   4.712
 1299DOPC   D2B14854  24.999  11.404   5.012
 1299DOPC   C3B14855  24.719  11.084   5.282
 1299DOPC   C4B14856  24.569  10.594   5.382
 1300DOPC   NC314857  23.019   4.094   7.122
 1300DOPC   PO414858  22.959   4.564   7.272
 1300DOPC   GL114859  22.759   4.444   6.902
 1300DOPC   GL214860  22.509   4.654   6.962
 1300DOPC   C1A14861  22.879   4.284   6.532
 1300DOPC   D2A14862  23.039   4.544   6.202
 1300DOPC   C3A14863  23.019   4.584   5.702
 1300DOPC   C4A14864  22.849   4.974   5.472
 1300DOPC   C1B14865  22.379   4.394   6.602
 1300DOPC   D2B14866  22.119   4.184   6.292
 1300DOPC   C3B14867  22.389   4.234   5.872
 1300DOPC   C4B14868  22.329   4.584   5.512
 1301DOPC   NC314869  11.779  14.934   5.102
 1301DOPC   PO414870  11.659  15.424   5.112
 1301DOPC   GL114871  11.569  15.544   5.542
 1301DOPC   GL214872  11.219  15.414   5.632
 1301DOPC   C1A14873  11.469  15.604   5.982
 1301DOPC   D2A14874  11.599  15.784   6.352
 1301DOPC   C3A14875  11.459  15.894   6.732
 1301DOPC   C4A14876  11.759  16.034   6.982
 1301DOPC   C1B14877  11.159  15.244   6.022
 1301DOPC   D2B14878  10.779  14.954   6.242
 1301DOPC   C3B14879  10.699  14.874   6.592
 1301DOPC   C4B14880  10.359  14.714   6.852
 1302DOPC   NC314881   9.699   8.674   4.302
 1302DOPC   PO414882   9.879   8.324   4.442
 1302DOPC   GL114883   9.819   8.564   4.842
 1302DOPC   GL214884   9.759   8.984   4.802
 1302DOPC   C1A14885   9.949   8.634   5.152
 1302DOPC   D2A14886  10.099   8.394   5.502
 1302DOPC   C3A14887  10.449   8.694   5.812
 1302DOPC   C4A14888  10.769   8.784   5.642
 1302DOPC   C1B14889   9.619   8.964   5.272
 1302DOPC   D2B14890   9.539   8.804   5.702
 1302DOPC   C3B14891   9.709   9.044   6.002
 1302DOPC   C4B14892   9.789   9.414   6.102
 1303DOPC   NC314893  20.399   8.114   7.032
 1303DOPC   PO414894  20.169   8.004   7.442
 1303DOPC   GL114895  20.029   8.414   7.222
 1303DOPC   GL214896  19.989   8.684   7.362
 1303DOPC   C1A14897  19.849   8.564   6.882
 1303DOPC   D2A14898  19.789   8.514   6.462
 1303DOPC   C3A14899  19.449   8.634   6.242
 1303DOPC   C4A14900  19.119   8.844   5.992
 1303DOPC   C1B14901  19.639   8.904   7.192
 1303DOPC   D2B14902  19.429   8.844   6.822
 1303DOPC   C3B14903  19.389   9.294   6.522
 1303DOPC   C4B14904  19.219   9.564   6.312
 1304DOPC   NC314905   6.959  12.304   7.802
 1304DOPC   PO414906   7.309  11.944   7.542
 1304DOPC   GL114907   7.589  11.994   7.222
 1304DOPC   GL214908   7.589  12.344   7.082
 1304DOPC   C1A14909   7.819  11.864   6.852
 1304DOPC   D2A14910   8.039  11.824   6.522
 1304DOPC   C3A14911   7.819  11.804   6.162
 1304DOPC   C4A14912   7.789  11.624   5.842
 1304DOPC   C1B14913   7.429  12.444   6.762
 1304DOPC   D2B14914   7.299  12.764   6.482
 1304DOPC   C3B14915   7.309  13.234   6.622
 1304DOPC   C4B14916   7.349  13.634   6.412
 1305DOPC   NC314917  16.739  21.354   3.572
 1305DOPC   PO414918  16.319  21.104   3.672
 1305DOPC   GL114919  16.339  21.014   4.202
 1305DOPC   GL214920  16.189  21.334   4.402
 1305DOPC   C1A14921  16.409  20.794   4.592
 1305DOPC   D2A14922  16.259  20.854   4.992
 1305DOPC   C3A14923  16.229  20.784   5.452
 1305DOPC   C4A14924  16.009  20.484   5.682
 1305DOPC   C1B14925  16.409  21.294   4.832
 1305DOPC   D2B14926  16.509  21.174   5.272
 1305DOPC   C3B14927  16.149  21.304   5.432
 1305DOPC   C4B14928  15.959  21.601   5.542
 1306DOPC   NC314929  13.929  19.504   4.832
 1306DOPC   PO414930  13.699  19.824   4.402
 1306DOPC   GL114931  13.549  19.944   4.872
 1306DOPC   GL214932  13.499  19.704   4.932
 1306DOPC   C1A14933  13.409  20.204   5.242
 1306DOPC   D2A14934  13.119  20.184   5.572
 1306DOPC   C3A14935  13.139  20.144   5.932
 1306DOPC   C4A14936  13.209  20.044   6.422
 1306DOPC   C1B14937  13.669  19.844   5.392
 1306DOPC   D2B14938  13.589  20.034   5.732
 1306DOPC   C3B14939  13.929  20.284   5.882
 1306DOPC   C4B14940  14.199  20.494   6.142
 1307DOPC   NC314941  14.159  15.294   4.122
 1307DOPC   PO414942  14.489  15.314   4.482
 1307DOPC   GL114943  14.399  15.484   4.852
 1307DOPC   GL214944  14.119  15.284   5.072
 1307DOPC   C1A14945  14.589  15.634   5.242
 1307DOPC   D2A14946  14.609  15.874   5.572
 1307DOPC   C3A14947  14.389  16.264   5.542
 1307DOPC   C4A14948  14.389  16.494   5.252
 1307DOPC   C1B14949  14.189  15.464   5.562
 1307DOPC   D2B14950  14.049  15.474   6.032
 1307DOPC   C3B14951  13.909  15.784   6.212
 1307DOPC   C4B14952  13.929  15.974   6.562
 1308DOPC   NC314953  19.699   5.034   4.102
 1308DOPC   PO414954  20.089   5.194   4.382
 1308DOPC   GL114955  20.029   4.914   4.692
 1308DOPC   GL214956  19.739   4.954   4.832
 1308DOPC   C1A14957  20.109   4.814   5.132
 1308DOPC   D2A14958  20.089   4.564   5.512
 1308DOPC   C3A14959  20.539   4.474   5.552
 1308DOPC   C4A14960  20.929   4.524   5.332
 1308DOPC   C1B14961  19.449   5.274   5.042
 1308DOPC   D2B14962  19.559   5.454   5.412
 1308DOPC   C3B14963  19.899   5.744   5.302
 1308DOPC   C4B14964  20.259   5.784   4.932
 1309DOPC   NC314965  17.139  19.454   7.642
 1309DOPC   PO414966  17.239  19.614   7.292
 1309DOPC   GL114967  17.129  19.464   6.872
 1309DOPC   GL214968  17.009  19.214   6.832
 1309DOPC   C1A14969  17.329  19.574   6.382
 1309DOPC   D2A14970  17.289  19.794   5.962
 1309DOPC   C3A14971  17.099  19.824   5.532
 1309DOPC   C4A14972  16.729  19.964   5.252
 1309DOPC   C1B14973  16.679  19.424   6.662
 1309DOPC   D2B14974  16.289  19.294   6.642
 1309DOPC   C3B14975  16.059  18.924   6.582
 1309DOPC   C4B14976  15.649  18.764   6.382
 1310DOPC   NC314977  15.389   8.854   4.382
 1310DOPC   PO414978  15.579   9.254   4.282
 1310DOPC   GL114979  15.449   9.264   4.652
 1310DOPC   GL214980  15.559   9.044   4.862
 1310DOPC   C1A14981  15.319   9.404   5.082
 1310DOPC   D2A14982  15.209   9.704   5.352
 1310DOPC   C3A14983  15.499   9.934   5.482
 1310DOPC   C4A14984  15.639   9.854   5.902
 1310DOPC   C1B14985  15.729   9.084   5.162
 1310DOPC   D2B14986  16.099   9.134   5.382
 1310DOPC   C3B14987  16.219   9.174   5.792
 1310DOPC   C4B14988  16.059   8.994   6.142
 1311DOPC   NC314989   3.429   2.914   3.332
 1311DOPC   PO414990   3.209   3.254   3.542
 1311DOPC   GL114991   3.309   3.324   4.042
 1311DOPC   GL214992   3.139   3.294   4.252
 1311DOPC   C1A14993   3.549   3.344   4.512
 1311DOPC   D2A14994   3.939   3.424   4.712
 1311DOPC   C3A14995   4.229   3.564   4.522
 1311DOPC   C4A14996   4.589   3.894   4.452
 1311DOPC   C1B14997   3.149   3.014   4.652
 1311DOPC   D2B14998   3.379   2.894   5.062
 1311DOPC   C3B14999   3.479   3.274   5.282
 1311DOPC   C4B15000   3.589   3.534   5.602
 1312DOPC   NC315001   5.809  12.634   3.612
 1312DOPC   PO415002   6.319  12.504   3.452
 1312DOPC   GL115003   6.239  12.614   3.942
 1312DOPC   GL215004   6.059  12.334   4.012
 1312DOPC   C1A15005   6.209  12.654   4.442
 1312DOPC   D2A15006   6.349  12.834   4.802
 1312DOPC   C3A15007   6.449  12.664   5.212
 1312DOPC   C4A15008   6.639  12.214   5.242
 1312DOPC   C1B15009   5.869  12.134   4.382
 1312DOPC   D2B15010   5.699  12.244   4.662
 1312DOPC   C3B15011   5.459  12.444   5.032
 1312DOPC   C4B15012   5.519  12.834   5.232
 1313DOPC   NC315013   0.639  22.311   8.052
 1313DOPC   PO415014   0.469  22.271   7.602
 1313DOPC   GL115015   0.729  22.211   7.152
 1313DOPC   GL215016   1.019  22.121   7.192
 1313DOPC   C1A15017   0.809  22.351   6.732
 1313DOPC   D2A15018   1.069  22.751   6.452
 1313DOPC   C3A15019   0.969  22.751   5.982
 1313DOPC   C4A15020   0.539  22.871   5.782
 1313DOPC   C1B15021   1.139  21.941   6.862
 1313DOPC   D2B15022   1.339  21.761   6.502
 1313DOPC   C3B15023   1.199  21.731   6.152
 1313DOPC   C4B15024   1.529  21.841   5.812
 1314DOPC   NC315025   9.079   6.394   3.452
 1314DOPC   PO415026   8.849   6.324   3.862
 1314DOPC   GL115027   8.459   6.224   4.152
 1314DOPC   GL215028   8.699   5.954   4.312
 1314DOPC   C1A15029   8.289   6.154   4.502
 1314DOPC   D2A15030   8.339   6.374   4.932
 1314DOPC   C3A15031   8.439   6.064   5.252
 1314DOPC   C4A15032   8.669   5.804   5.532
 1314DOPC   C1B15033   8.749   6.304   4.672
 1314DOPC   D2B15034   8.899   6.194   5.142
 1314DOPC   C3B15035   9.109   5.774   5.282
 1314DOPC   C4B15036   9.139   5.584   5.672
 1315DOPC   NC315037  11.569  18.104   9.032
 1315DOPC   PO415038  11.679  17.954   8.702
 1315DOPC   GL115039  11.479  17.884   8.312
 1315DOPC   GL215040  11.399  18.254   8.202
 1315DOPC   C1A15041  11.209  17.804   8.002
 1315DOPC   D2A15042  11.009  17.944   7.572
 1315DOPC   C3A15043  11.039  17.574   7.272
 1315DOPC   C4A15044  11.449  17.384   7.142
 1315DOPC   C1B15045  11.379  18.204   7.792
 1315DOPC   D2B15046  11.379  18.284   7.422
 1315DOPC   C3B15047  11.389  17.974   7.202
 1315DOPC   C4B15048  11.449  17.744   7.582
 1316DOPC   NC315049  23.989  21.024   3.492
 1316DOPC   PO415050  23.919  20.614   3.672
 1316DOPC   GL115051  23.859  20.454   4.022
 1316DOPC   GL215052  23.539  20.604   4.022
 1316DOPC   C1A15053  23.709  20.324   4.442
 1316DOPC   D2A15054  23.529  20.464   4.802
 1316DOPC   C3A15055  23.619  20.654   5.252
 1316DOPC   C4A15056  23.449  20.914   5.592
 1316DOPC   C1B15057  23.769  20.814   4.392
 1316DOPC   D2B15058  23.559  21.114   4.742
 1316DOPC   C3B15059  23.759  21.501   4.902
 1316DOPC   C4B15060  23.709  21.611   5.342
 1317DOPC   NC315061  14.189  14.684   9.012
 1317DOPC   PO415062  14.249  14.964   8.702
 1317DOPC   GL115063  14.149  14.714   8.432
 1317DOPC   GL215064  13.799  14.644   8.652
 1317DOPC   C1A15065  13.979  14.494   7.962
 1317DOPC   D2A15066  14.139  14.394   7.572
 1317DOPC   C3A15067  14.279  14.614   7.362
 1317DOPC   C4A15068  14.229  15.064   7.322
 1317DOPC   C1B15069  13.729  14.424   8.332
 1317DOPC   D2B15070  13.549  14.294   7.922
 1317DOPC   C3B15071  13.519  14.494   7.522
 1317DOPC   C4B15072  13.339  14.994   7.542
 1318DOPC   NC315073  11.629  21.124   4.462
 1318DOPC   PO415074  11.479  21.034   4.812
 1318DOPC   GL115075  11.559  21.184   5.192
 1318DOPC   GL215076  11.239  21.274   5.282
 1318DOPC   C1A15077  11.709  21.294   5.602
 1318DOPC   D2A15078  11.709  21.471   6.072
 1318DOPC   C3A15079  11.859  21.254   6.312
 1318DOPC   C4A15080  11.529  21.034   6.542
 1318DOPC   C1B15081  10.879  21.521   5.442
 1318DOPC   D2B15082  10.839  21.851   5.812
 1318DOPC   C3B15083  10.389  21.831   5.962
 1318DOPC   C4B15084  10.139  21.461   5.982
 1319DOPC   NC315085  12.399  11.894   5.682
 1319DOPC   PO415086  12.869  11.854   5.522
 1319DOPC   GL115087  12.869  11.784   5.972
 1319DOPC   GL215088  12.659  11.614   5.972
 1319DOPC   C1A15089  12.909  11.604   6.462
 1319DOPC   D2A15090  12.859  11.524   6.912
 1319DOPC   C3A15091  12.869  11.184   7.182
 1319DOPC   C4A15092  13.099  11.034   7.242
 1319DOPC   C1B15093  12.509  11.264   6.212
 1319DOPC   D2B15094  12.839  11.154   6.582
 1319DOPC   C3B15095  12.659  10.864   6.852
 1319DOPC   C4B15096  12.909  10.504   6.992
 1320DOPC   NC315097   9.939  17.004   8.552
 1320DOPC   PO415098   9.609  16.854   8.312
 1320DOPC   GL115099   9.719  16.794   7.902
 1320DOPC   GL215100   9.519  17.064   7.742
 1320DOPC   C1A15101   9.849  16.594   7.452
 1320DOPC   D2A15102   9.899  16.134   7.232
 1320DOPC   C3A15103   9.649  16.084   6.802
 1320DOPC   C4A15104   9.329  15.954   6.362
 1320DOPC   C1B15105   9.529  16.974   7.142
 1320DOPC   D2B15106   9.679  16.984   6.702
 1320DOPC   C3B15107   9.539  17.394   6.522
 1320DOPC   C4B15108   9.309  17.574   6.242
 1321DOPC   NC315109  22.689  15.734   3.492
 1321DOPC   PO415110  22.889  15.754   3.802
 1321DOPC   GL115111  23.049  15.574   4.232
 1321DOPC   GL215112  23.159  15.724   4.562
 1321DOPC   C1A15113  22.669  15.304   4.502
 1321DOPC   D2A15114  22.549  15.164   4.912
 1321DOPC   C3A15115  22.159  15.244   5.232
 1321DOPC   C4A15116  21.769  15.424   5.382
 1321DOPC   C1B15117  22.969  15.474   4.862
 1321DOPC   D2B15118  22.989  15.124   5.122
 1321DOPC   C3B15119  23.209  15.164   5.552
 1321DOPC   C4B15120  23.189  15.104   6.002
 1322DOPC   NC315121   8.079  19.294   4.412
 1322DOPC   PO415122   8.549  19.354   4.382
 1322DOPC   GL115123   8.329  19.584   4.732
 1322DOPC   GL215124   8.009  19.514   4.952
 1322DOPC   C1A15125   8.329  19.474   5.282
 1322DOPC   D2A15126   8.189  19.314   5.602
 1322DOPC   C3A15127   8.359  19.214   5.952
 1322DOPC   C4A15128   8.609  19.234   6.082
 1322DOPC   C1B15129   7.779  19.434   5.342
 1322DOPC   D2B15130   7.779  19.544   5.812
 1322DOPC   C3B15131   7.939  19.954   5.962
 1322DOPC   C4B15132   7.809  20.134   6.372
 1323DOPC   NC315133   8.669   4.954   8.232
 1323DOPC   PO415134   8.299   4.554   8.232
 1323DOPC   GL115135   8.279   4.794   7.842
 1323DOPC   GL215136   8.519   5.134   7.762
 1323DOPC   C1A15137   8.219   4.614   7.432
 1323DOPC   D2A15138   8.359   4.644   7.062
 1323DOPC   C3A15139   8.719   4.354   7.022
 1323DOPC   C4A15140   8.989   4.074   6.832
 1323DOPC   C1B15141   8.629   4.944   7.392
 1323DOPC   D2B15142   8.849   4.834   7.102
 1323DOPC   C3B15143   8.699   4.784   6.682
 1323DOPC   C4B15144   8.699   4.384   6.552
 1324DOPC   NC315145   5.369  16.864   3.802
 1324DOPC   PO415146   4.999  16.894   3.872
 1324DOPC   GL115147   4.649  16.834   4.232
 1324DOPC   GL215148   4.449  16.894   4.022
 1324DOPC   C1A15149   4.559  16.994   4.702
 1324DOPC   D2A15150   4.549  17.074   5.162
 1324DOPC   C3A15151   4.299  16.954   5.462
 1324DOPC   C4A15152   4.239  17.014   5.902
 1324DOPC   C1B15153   4.289  16.574   4.482
 1324DOPC   D2B15154   3.869  16.504   4.612
 1324DOPC   C3B15155   3.559  16.294   4.572
 1324DOPC   C4B15156   3.389  16.104   4.322
 1325DOPC   NC315157  19.029  11.184   8.162
 1325DOPC   PO415158  18.599  11.184   7.932
 1325DOPC   GL115159  18.649  11.174   7.532
 1325DOPC   GL215160  18.379  11.204   7.362
 1325DOPC   C1A15161  18.699  10.924   7.052
 1325DOPC   D2A15162  18.709  10.594   6.772
 1325DOPC   C3A15163  18.679  10.444   6.302
 1325DOPC   C4A15164  18.659  10.664   5.852
 1325DOPC   C1B15165  18.329  11.324   6.962
 1325DOPC   D2B15166  18.259  11.694   6.722
 1325DOPC   C3B15167  18.019  11.654   6.292
 1325DOPC   C4B15168  17.639  11.774   6.222
 1326DOPC   NC315169   8.319  24.241   3.832
 1326DOPC   PO415170   8.259  23.911   4.192
 1326DOPC   GL115171   8.289  23.991   4.632
 1326DOPC   GL215172   8.549  24.001   4.822
 1326DOPC   C1A15173   8.079  24.061   5.012
 1326DOPC   D2A15174   7.759  24.301   5.152
 1326DOPC   C3A15175   7.479  24.691   5.122
 1326DOPC   C4A15176   7.199  24.981   5.182
 1326DOPC   C1B15177   8.689  24.001   5.232
 1326DOPC   D2B15178   8.869  24.171   5.572
 1326DOPC   C3B15179   9.169  24.241   5.872
 1326DOPC   C4B15180   9.479  24.491   5.972
 1327DOPC   NC315181  18.889  14.514   3.922
 1327DOPC   PO415182  18.349  14.454   3.842
 1327DOPC   GL115183  18.559  14.564   4.302
 1327DOPC   GL215184  18.729  14.824   4.462
 1327DOPC   C1A15185  18.639  14.304   4.662
 1327DOPC   D2A15186  18.609  14.014   5.102
 1327DOPC   C3A15187  18.699  13.834   5.542
 1327DOPC   C4A15188  19.019  13.654   5.792
 1327DOPC   C1B15189  19.029  14.684   4.702
 1327DOPC   D2B15190  19.049  14.264   4.922
 1327DOPC   C3B15191  19.009  14.204   5.302
 1327DOPC   C4B15192  19.149  14.204   5.772
 1328DOPC   NC315193  18.349  20.434   7.632
 1328DOPC   PO415194  18.249  20.824   7.832
 1328DOPC   GL115195  18.169  20.994   7.502
 1328DOPC   GL215196  18.209  20.814   7.272
 1328DOPC   C1A15197  18.079  21.264   7.102
 1328DOPC   D2A15198  17.959  21.381   6.672
 1328DOPC   C3A15199  17.579  21.294   6.482
 1328DOPC   C4A15200  17.119  21.294   6.422
 1328DOPC   C1B15201  18.259  20.864   6.792
 1328DOPC   D2B15202  18.169  20.464   6.562
 1328DOPC   C3B15203  18.239  20.544   6.042
 1328DOPC   C4B15204  18.229  20.654   5.632
 1329DOPC   NC315205  13.089   6.684   4.052
 1329DOPC   PO415206  12.819   6.434   4.292
 1329DOPC   GL115207  12.829   6.214   4.792
 1329DOPC   GL215208  12.569   6.104   4.922
 1329DOPC   C1A15209  12.929   5.844   5.122
 1329DOPC   D2A15210  13.179   5.704   5.372
 1329DOPC   C3A15211  13.239   6.034   5.652
 1329DOPC   C4A15212  13.429   6.204   6.042
 1329DOPC   C1B15213  12.149   6.174   5.172
 1329DOPC   D2B15214  11.809   6.174   5.422
 1329DOPC   C3B15215  11.869   5.964   5.792
 1329DOPC   C4B15216  11.829   5.624   6.132
 1330DOPC   NC315217   9.269  23.911   8.452
 1330DOPC   PO415218   9.439  23.631   8.112
 1330DOPC   GL115219   9.309  23.691   7.742
 1330DOPC   GL215220   9.549  23.991   7.652
 1330DOPC   C1A15221   9.169  23.801   7.322
 1330DOPC   D2A15222   9.069  23.961   6.992
 1330DOPC   C3A15223   9.179  23.941   6.572
 1330DOPC   C4A15224   9.459  24.091   6.252
 1330DOPC   C1B15225   9.709  23.751   7.262
 1330DOPC   D2B15226   9.779  23.501   6.932
 1330DOPC   C3B15227  10.159  23.311   6.892
 1330DOPC   C4B15228  10.489  23.151   6.802
 1331DOPC   NC315229  19.159   1.154   4.062
 1331DOPC   PO415230  19.129   1.584   3.842
 1331DOPC   GL115231  19.149   1.574   4.312
 1331DOPC   GL215232  18.889   1.474   4.372
 1331DOPC   C1A15233  19.239   1.604   4.712
 1331DOPC   D2A15234  19.519   1.604   5.082
 1331DOPC   C3A15235  19.859   1.834   5.282
 1331DOPC   C4A15236  19.869   2.324   5.232
 1331DOPC   C1B15237  18.649   1.504   4.742
 1331DOPC   D2B15238  18.329   1.734   4.912
 1331DOPC   C3B15239  18.329   2.044   5.212
 1331DOPC   C4B15240  18.419   2.154   5.552
 1332DOPC   NC315241   5.589  17.674   3.782
 1332DOPC   PO415242   5.869  17.724   4.182
 1332DOPC   GL115243   5.789  17.574   4.622
 1332DOPC   GL215244   5.989  17.624   4.962
 1332DOPC   C1A15245   5.569  17.324   5.032
 1332DOPC   D2A15246   5.189  17.394   5.292
 1332DOPC   C3A15247   4.849  17.284   5.532
 1332DOPC   C4A15248   4.999  17.124   5.982
 1332DOPC   C1B15249   5.859  17.524   5.422
 1332DOPC   D2B15250   5.499  17.584   5.732
 1332DOPC   C3B15251   5.059  17.684   5.652
 1332DOPC   C4B15252   4.759  17.874   5.422
 1333DOPC   NC315253   0.989   7.554   6.882
 1333DOPC   PO415254   1.109   7.874   6.492
 1333DOPC   GL115255   1.309   7.824   6.082
 1333DOPC   GL215256   1.359   8.174   6.092
 1333DOPC   C1A15257   1.049   7.574   5.832
 1333DOPC   D2A15258   0.899   7.504   5.462
 1333DOPC   C3A15259   0.839   7.114   5.212
 1333DOPC   C4A15260   0.709   6.844   4.852
 1333DOPC   C1B15261   1.769   8.174   5.972
 1333DOPC   D2B15262   2.019   7.904   5.662
 1333DOPC   C3B15263   1.749   7.974   5.472
 1333DOPC   C4B15264   1.339   7.874   5.532
 1334DOPC   NC315265   5.829  15.394   8.202
 1334DOPC   PO415266   5.779  15.104   7.752
 1334DOPC   GL115267   6.119  15.054   7.372
 1334DOPC   GL215268   6.349  14.844   7.382
 1334DOPC   C1A15269   6.179  14.864   6.892
 1334DOPC   D2A15270   6.069  14.714   6.522
 1334DOPC   C3A15271   5.699  14.814   6.312
 1334DOPC   C4A15272   5.259  15.054   6.452
 1334DOPC   C1B15273   6.489  14.484   6.942
 1334DOPC   D2B15274   6.609  14.394   6.632
 1334DOPC   C3B15275   6.909  14.614   6.462
 1334DOPC   C4B15276   7.179  15.014   6.442
 1335DOPC   NC315277  18.239  -0.046   3.822
 1335DOPC   PO415278  18.639  -0.036   3.632
 1335DOPC   GL115279  18.599  -0.086   4.182
 1335DOPC   GL215280  18.319   0.194   4.332
 1335DOPC   C1A15281  18.419  -0.246   4.572
 1335DOPC   D2A15282  18.359   0.044   5.012
 1335DOPC   C3A15283  18.359  -0.056   5.432
 1335DOPC   C4A15284  18.589  -0.186   5.872
 1335DOPC   C1B15285  18.579   0.454   4.602
 1335DOPC   D2B15286  18.589   0.584   5.012
 1335DOPC   C3B15287  18.379   0.684   5.322
 1335DOPC   C4B15288  18.209   1.044   5.532
 1336DOPC   NC315289  23.939  23.601   3.352
 1336DOPC   PO415290  24.139  23.601   3.742
 1336DOPC   GL115291  24.299  23.581   4.202
 1336DOPC   GL215292  24.489  23.231   4.272
 1336DOPC   C1A15293  24.379  23.851   4.642
 1336DOPC   D2A15294  24.519  23.771   5.002
 1336DOPC   C3A15295  24.749  24.121   5.292
 1336DOPC   C4A15296  24.939  24.591   5.272
 1336DOPC   C1B15297  24.489  23.341   4.722
 1336DOPC   D2B15298  24.599  23.281   5.122
 1336DOPC   C3B15299  24.369  22.921   5.422
 1336DOPC   C4B15300  24.169  22.741   5.612
 1337DOPC   NC315301  10.689  11.844   4.912
 1337DOPC   PO415302  10.669  12.304   5.162
 1337DOPC   GL115303  10.379  12.074   5.482
 1337DOPC   GL215304  10.289  11.844   5.332
 1337DOPC   C1A15305  10.249  12.274   5.912
 1337DOPC   D2A15306   9.989  12.454   6.202
 1337DOPC   C3A15307   9.799  12.704   6.092
 1337DOPC   C4A15308   9.299  12.754   6.092
 1337DOPC   C1B15309  10.319  11.664   5.752
 1337DOPC   D2B15310  10.319  11.394   6.052
 1337DOPC   C3B15311  10.249  11.524   6.522
 1337DOPC   C4B15312  10.049  11.834   6.812
 1338DOPC   NC315313  23.309   3.254   3.522
 1338DOPC   PO415314  23.499   2.864   3.652
 1338DOPC   GL115315  23.399   2.744   4.012
 1338DOPC   GL215316  23.589   2.804   4.242
 1338DOPC   C1A15317  23.349   2.394   4.282
 1338DOPC   D2A15318  23.109   2.334   4.662
 1338DOPC   C3A15319  22.819   1.984   4.542
 1338DOPC   C4A15320  22.609   1.614   4.322
 1338DOPC   C1B15321  23.809   3.164   4.262
 1338DOPC   D2B15322  23.939   3.374   4.662
 1338DOPC   C3B15323  23.799   3.324   5.102
 1338DOPC   C4B15324  23.549   3.514   5.392
 1339DOPC   NC315325   6.139  24.201   4.002
 1339DOPC   PO415326   6.449  24.021   4.282
 1339DOPC   GL115327   6.269  24.291   4.582
 1339DOPC   GL215328   6.519  24.471   4.602
 1339DOPC   C1A15329   6.169  24.411   5.062
 1339DOPC   D2A15330   6.169  24.561   5.502
 1339DOPC   C3A15331   6.569  24.791   5.582
 1339DOPC   C4A15332   6.679  24.991   5.232
 1339DOPC   C1B15333   6.679  24.511   4.982
 1339DOPC   D2B15334   6.589  24.401   5.342
 1339DOPC   C3B15335   6.619  24.261   5.742
 1339DOPC   C4B15336   6.579  24.481   6.022
 1340DOPC   NC315337  10.859   7.404   8.592
 1340DOPC   PO415338  10.729   7.764   8.312
 1340DOPC   GL115339  10.939   7.834   7.962
 1340DOPC   GL215340  10.679   7.774   7.782
 1340DOPC   C1A15341  11.109   7.744   7.552
 1340DOPC   D2A15342  11.379   7.724   7.162
 1340DOPC   C3A15343  11.449   7.484   6.792
 1340DOPC   C4A15344  11.389   7.774   6.322
 1340DOPC   C1B15345  10.749   7.934   7.302
 1340DOPC   D2B15346  10.379   8.164   7.042
 1340DOPC   C3B15347  10.479   8.084   6.542
 1340DOPC   C4B15348  10.949   8.014   6.262
 1341DOPC   NC315349   5.439   3.514   3.872
 1341DOPC   PO415350   5.039   3.504   4.002
 1341DOPC   GL115351   5.009   3.644   4.412
 1341DOPC   GL215352   5.299   3.604   4.452
 1341DOPC   C1A15353   4.729   3.544   4.792
 1341DOPC   D2A15354   4.379   3.304   4.922
 1341DOPC   C3A15355   4.339   3.114   5.322
 1341DOPC   C4A15356   4.339   3.334   5.592
 1341DOPC   C1B15357   5.069   3.194   4.652
 1341DOPC   D2B15358   4.839   2.984   4.882
 1341DOPC   C3B15359   4.889   2.894   5.312
 1341DOPC   C4B15360   4.609   2.844   5.752
 1342DOPC   NC315361  21.719  14.214   3.802
 1342DOPC   PO415362  21.859  13.824   3.622
 1342DOPC   GL115363  21.979  13.894   4.072
 1342DOPC   GL215364  21.749  13.974   4.192
 1342DOPC   C1A15365  22.159  14.314   4.322
 1342DOPC   D2A15366  22.139  14.374   4.832
 1342DOPC   C3A15367  22.099  14.174   5.192
 1342DOPC   C4A15368  22.049  14.304   5.662
 1342DOPC   C1B15369  21.349  13.874   4.462
 1342DOPC   D2B15370  21.109  13.474   4.312
 1342DOPC   C3B15371  21.289  12.984   4.392
 1342DOPC   C4B15372  21.459  12.554   4.612
 1343DOPC   NC315373   3.099  25.321   3.302
 1343DOPC   PO415374   3.419  25.491   3.512
 1343DOPC   GL115375   3.399  25.421   3.922
 1343DOPC   GL215376   3.599  25.231   4.142
 1343DOPC   C1A15377   3.319  25.611   4.322
 1343DOPC   D2A15378   3.519  25.821   4.622
 1343DOPC   C3A15379   3.409  26.051   4.952
 1343DOPC   C4A15380   3.359  26.041   5.402
 1343DOPC   C1B15381   3.589  25.311   4.642
 1343DOPC   D2B15382   3.439  25.551   5.012
 1343DOPC   C3B15383   3.669  25.651   5.312
 1343DOPC   C4B15384   3.629  25.631   5.802
 1344DOPC   NC315385  12.529  10.664   4.892
 1344DOPC   PO415386  12.729  11.044   5.092
 1344DOPC   GL115387  12.899  10.904   5.422
 1344DOPC   GL215388  13.279  10.954   5.392
 1344DOPC   C1A15389  12.689  10.864   5.812
 1344DOPC   D2A15390  12.769  10.864   6.152
 1344DOPC   C3A15391  13.059  10.734   6.372
 1344DOPC   C4A15392  13.289  10.924   6.802
 1344DOPC   C1B15393  13.269  10.814   5.772
 1344DOPC   D2B15394  13.469  10.514   6.122
 1344DOPC   C3B15395  13.569  10.694   6.532
 1344DOPC   C4B15396  13.759  10.844   6.932
 1345DOPC   NC315397  17.679   4.654   3.962
 1345DOPC   PO415398  17.999   4.324   3.892
 1345DOPC   GL115399  17.959   4.414   4.352
 1345DOPC   GL215400  18.279   4.214   4.462
 1345DOPC   C1A15401  17.949   4.444   4.712
 1345DOPC   D2A15402  18.269   4.314   4.922
 1345DOPC   C3A15403  18.319   4.124   5.252
 1345DOPC   C4A15404  18.289   3.714   5.402
 1345DOPC   C1B15405  17.989   3.954   4.702
 1345DOPC   D2B15406  17.949   3.864   5.092
 1345DOPC   C3B15407  17.509   3.814   5.382
 1345DOPC   C4B15408  17.339   4.114   5.592
 1346DOPC   NC315409  11.419  20.814   8.412
 1346DOPC   PO415410  11.599  20.494   8.372
 1346DOPC   GL115411  11.459  20.334   7.892
 1346DOPC   GL215412  11.279  20.154   8.062
 1346DOPC   C1A15413  11.179  20.464   7.512
 1346DOPC   D2A15414  11.419  20.424   7.102
 1346DOPC   C3A15415  11.509  20.094   6.852
 1346DOPC   C4A15416  11.689  19.914   6.482
 1346DOPC   C1B15417  10.959  20.264   7.912
 1346DOPC   D2B15418  10.789  20.744   7.832
 1346DOPC   C3B15419  10.789  21.204   7.602
 1346DOPC   C4B15420  10.519  21.661   7.492
 1347DOPC   NC315421  19.149  13.114   8.452
 1347DOPC   PO415422  19.269  12.744   8.052
 1347DOPC   GL115423  19.209  12.914   7.682
 1347DOPC   GL215424  19.039  13.154   7.542
 1347DOPC   C1A15425  19.149  12.734   7.322
 1347DOPC   D2A15426  19.369  12.894   6.902
 1347DOPC   C3A15427  19.279  12.714   6.542
 1347DOPC   C4A15428  19.109  12.454   6.282
 1347DOPC   C1B15429  18.969  13.274   7.162
 1347DOPC   D2B15430  18.619  13.404   6.922
 1347DOPC   C3B15431  18.349  13.164   6.882
 1347DOPC   C4B15432  18.029  12.864   6.842
 1348DOPC   NC315433  11.119   1.694   4.102
 1348DOPC   PO415434  11.319   1.994   4.352
 1348DOPC   GL115435  11.349   1.934   4.702
 1348DOPC   GL215436  11.499   1.584   4.802
 1348DOPC   C1A15437  11.549   2.034   5.042
 1348DOPC   D2A15438  11.619   1.914   5.452
 1348DOPC   C3A15439  11.429   1.694   5.802
 1348DOPC   C4A15440  11.229   1.364   5.872
 1348DOPC   C1B15441  11.909   1.584   5.122
 1348DOPC   D2B15442  12.239   1.664   5.512
 1348DOPC   C3B15443  11.929   1.794   5.842
 1348DOPC   C4B15444  11.779   1.884   6.162
 1349DOPC   NC315445  19.469   7.744   8.112
 1349DOPC   PO415446  19.449   7.574   7.602
 1349DOPC   GL115447  19.309   7.644   7.162
 1349DOPC   GL215448  19.229   7.964   7.072
 1349DOPC   C1A15449  19.329   7.354   6.812
 1349DOPC   D2A15450  19.219   7.044   6.442
 1349DOPC   C3A15451  18.809   7.254   6.212
 1349DOPC   C4A15452  18.779   7.714   6.132
 1349DOPC   C1B15453  19.409   8.174   6.702
 1349DOPC   D2B15454  19.569   8.094   6.242
 1349DOPC   C3B15455  19.289   7.884   6.032
 1349DOPC   C4B15456  19.099   7.494   5.882
 1350DOPC   NC315457  23.729  19.124   7.472
 1350DOPC   PO415458  23.319  18.964   7.392
 1350DOPC   GL115459  23.369  19.004   6.942
 1350DOPC   GL215460  23.709  19.064   6.972
 1350DOPC   C1A15461  23.469  18.964   6.502
 1350DOPC   D2A15462  23.259  19.094   6.162
 1350DOPC   C3A15463  23.269  19.454   5.912
 1350DOPC   C4A15464  22.979  19.624   5.622
 1350DOPC   C1B15465  23.939  18.864   6.602
 1350DOPC   D2B15466  24.179  18.724   6.282
 1350DOPC   C3B15467  24.139  18.984   5.862
 1350DOPC   C4B15468  24.319  18.884   5.502
 1351DOPC   NC315469  18.179  21.551   3.782
 1351DOPC   PO415470  18.719  21.671   3.852
 1351DOPC   GL115471  18.669  21.731   4.302
 1351DOPC   GL215472  18.509  21.431   4.222
 1351DOPC   C1A15473  18.639  21.751   4.722
 1351DOPC   D2A15474  18.769  21.481   5.192
 1351DOPC   C3A15475  18.569  21.094   5.242
 1351DOPC   C4A15476  18.459  21.134   5.632
 1351DOPC   C1B15477  18.499  21.204   4.552
 1351DOPC   D2B15478  18.419  20.914   4.822
 1351DOPC   C3B15479  18.009  20.654   5.072
 1351DOPC   C4B15480  17.569  20.534   5.182
 1352DOPC   NC315481  23.999  12.774   3.602
 1352DOPC   PO415482  23.619  12.784   3.742
 1352DOPC   GL115483  23.749  12.854   4.212
 1352DOPC   GL215484  23.719  13.124   4.172
 1352DOPC   C1A15485  23.819  12.784   4.582
 1352DOPC   D2A15486  23.939  12.514   4.932
 1352DOPC   C3A15487  23.749  12.084   4.992
 1352DOPC   C4A15488  23.879  11.624   4.992
 1352DOPC   C1B15489  23.549  13.174   4.582
 1352DOPC   D2B15490  23.609  13.044   4.992
 1352DOPC   C3B15491  23.269  12.944   5.352
 1352DOPC   C4B15492  22.919  12.744   5.502
 1353DOPC   NC315493   5.019   6.574   7.602
 1353DOPC   PO415494   5.349   6.654   7.272
 1353DOPC   GL115495   5.219   6.674   6.842
 1353DOPC   GL215496   5.359   6.914   6.622
 1353DOPC   C1A15497   5.029   6.514   6.502
 1353DOPC   D2A15498   4.639   6.614   6.112
 1353DOPC   C3A15499   4.669   7.044   5.962
 1353DOPC   C4A15500   4.739   7.164   5.532
 1353DOPC   C1B15501   5.509   7.344   6.492
 1353DOPC   D2B15502   5.599   7.584   6.192
 1353DOPC   C3B15503   5.729   7.374   5.812
 1353DOPC   C4B15504   5.619   7.064   5.382
 1354DOPC   NC315505  20.079  10.154   3.882
 1354DOPC   PO415506  19.639  10.024   3.872
 1354DOPC   GL115507  19.419  10.104   4.332
 1354DOPC   GL215508  19.359  10.454   4.472
 1354DOPC   C1A15509  19.189  10.054   4.682
 1354DOPC   D2A15510  18.749  10.044   4.822
 1354DOPC   C3A15511  18.769   9.644   4.942
 1354DOPC   C4A15512  19.059   9.294   5.042
 1354DOPC   C1B15513  19.719  10.284   4.742
 1354DOPC   D2B15514  19.929  10.244   5.102
 1354DOPC   C3B15515  20.289  10.464   5.342
 1354DOPC   C4B15516  20.459  10.634   5.662
 1355DOPC   NC315517  11.289   1.094   3.942
 1355DOPC   PO415518  10.989   0.774   4.192
 1355DOPC   GL115519  11.149   0.984   4.632
 1355DOPC   GL215520  10.829   1.104   4.682
 1355DOPC   C1A15521  11.289   1.224   5.022
 1355DOPC   D2A15522  11.469   1.454   5.302
 1355DOPC   C3A15523  11.829   1.294   5.482
 1355DOPC   C4A15524  11.929   0.934   5.782
 1355DOPC   C1B15525  10.829   1.034   5.132
 1355DOPC   D2B15526  10.859   1.354   5.462
 1355DOPC   C3B15527  11.059   1.634   5.492
 1355DOPC   C4B15528  11.039   1.814   5.102
 1356DOPC   NC315529  10.689  14.144   9.492
 1356DOPC   PO415530  10.609  14.394   9.202
 1356DOPC   GL115531  10.649  14.184   8.872
 1356DOPC   GL215532  10.569  13.854   8.632
 1356DOPC   C1A15533  10.959  14.204   8.532
 1356DOPC   D2A15534  10.989  14.364   8.082
 1356DOPC   C3A15535  11.049  14.014   7.712
 1356DOPC   C4A15536  10.989  13.764   7.332
 1356DOPC   C1B15537  10.309  13.714   8.282
 1356DOPC   D2B15538  10.309  13.454   7.882
 1356DOPC   C3B15539  10.399  13.674   7.522
 1356DOPC   C4B15540  10.409  13.984   7.592
 1357DOPC   NC315541  24.059  13.674   3.932
 1357DOPC   PO415542  24.169  13.184   3.942
 1357DOPC   GL115543  24.229  13.144   4.422
 1357DOPC   GL215544  24.109  13.404   4.362
 1357DOPC   C1A15545  24.129  13.074   4.872
 1357DOPC   D2A15546  24.009  12.934   5.252
 1357DOPC   C3A15547  23.719  12.934   5.622
 1357DOPC   C4A15548  23.739  12.904   6.052
 1357DOPC   C1B15549  23.909  13.514   4.742
 1357DOPC   D2B15550  23.639  13.694   4.862
 1357DOPC   C3B15551  23.499  14.124   4.812
 1357DOPC   C4B15552  23.309  14.404   4.922
 1358DOPC   NC315553  20.359  24.241   4.092
 1358DOPC   PO415554  20.079  23.891   3.822
 1358DOPC   GL115555  19.999  23.841   4.242
 1358DOPC   GL215556  19.849  23.541   4.372
 1358DOPC   C1A15557  19.829  23.901   4.722
 1358DOPC   D2A15558  19.819  24.261   4.912
 1358DOPC   C3A15559  19.669  24.441   5.362
 1358DOPC   C4A15560  19.829  24.651   5.732
 1358DOPC   C1B15561  20.109  23.491   4.772
 1358DOPC   D2B15562  20.379  23.171   4.922
 1358DOPC   C3B15563  20.609  23.411   5.322
 1358DOPC   C4B15564  20.989  23.281   5.512
 1359DOPC   NC315565  12.689  17.084   8.602
 1359DOPC   PO415566  12.799  16.684   8.552
 1359DOPC   GL115567  12.399  16.434   8.262
 1359DOPC   GL215568  12.509  16.154   8.182
 1359DOPC   C1A15569  12.089  16.574   7.882
 1359DOPC   D2A15570  11.859  16.754   7.562
 1359DOPC   C3A15571  11.909  16.724   7.192
 1359DOPC   C4A15572  12.289  16.734   6.842
 1359DOPC   C1B15573  12.299  15.904   7.942
 1359DOPC   D2B15574  12.349  15.544   7.632
 1359DOPC   C3B15575  12.029  15.204   7.522
 1359DOPC   C4B15576  11.939  14.804   7.172
 1360DOPC   NC315577  22.179  13.824   7.692
 1360DOPC   PO415578  21.699  13.964   7.672
 1360DOPC   GL115579  21.759  13.944   7.272
 1360DOPC   GL215580  21.649  14.184   7.132
 1360DOPC   C1A15581  21.899  13.854   6.822
 1360DOPC   D2A15582  21.939  13.434   6.712
 1360DOPC   C3A15583  21.849  13.214   6.322
 1360DOPC   C4A15584  21.489  13.164   5.962
 1360DOPC   C1B15585  21.629  14.304   6.752
 1360DOPC   D2B15586  21.679  14.224   6.272
 1360DOPC   C3B15587  21.659  14.564   5.912
 1360DOPC   C4B15588  21.399  14.834   5.832
 1361DOPC   NC315589   8.349  10.424   3.752
 1361DOPC   PO415590   8.199  10.624   4.072
 1361DOPC   GL115591   8.139  10.704   4.452
 1361DOPC   GL215592   8.439  10.434   4.612
 1361DOPC   C1A15593   7.859  10.934   4.722
 1361DOPC   D2A15594   7.469  11.134   4.882
 1361DOPC   C3A15595   7.369  11.464   5.012
 1361DOPC   C4A15596   7.319  11.694   5.412
 1361DOPC   C1B15597   8.519  10.704   4.902
 1361DOPC   D2B15598   8.209  10.654   5.092
 1361DOPC   C3B15599   7.959  10.764   5.552
 1361DOPC   C4B15600   8.069  10.524   5.912
 1362DOPC   NC315601  13.229  18.784   4.932
 1362DOPC   PO415602  13.479  18.374   4.932
 1362DOPC   GL115603  13.319  18.244   5.292
 1362DOPC   GL215604  13.239  18.504   5.482
 1362DOPC   C1A15605  13.289  18.124   5.792
 1362DOPC   D2A15606  13.499  18.134   6.132
 1362DOPC   C3A15607  13.899  17.914   6.232
 1362DOPC   C4A15608  13.969  17.504   6.402
 1362DOPC   C1B15609  13.069  18.534   5.812
 1362DOPC   D2B15610  12.739  18.744   6.112
 1362DOPC   C3B15611  12.469  18.504   6.392
 1362DOPC   C4B15612  12.249  18.544   6.852
 1363DOPC   NC315613   6.829  17.714   4.282
 1363DOPC   PO415614   6.609  17.324   4.322
 1363DOPC   GL115615   6.299  17.304   4.662
 1363DOPC   GL215616   5.959  17.034   4.712
 1363DOPC   C1A15617   6.189  17.144   5.122
 1363DOPC   D2A15618   6.499  17.174   5.382
 1363DOPC   C3A15619   6.489  16.884   5.632
 1363DOPC   C4A15620   6.479  17.034   5.972
 1363DOPC   C1B15621   5.779  16.734   5.062
 1363DOPC   D2B15622   6.089  16.634   5.322
 1363DOPC   C3B15623   5.979  16.844   5.732
 1363DOPC   C4B15624   5.899  17.064   6.092
 1364DOPC   NC315625   2.679  21.501   4.022
 1364DOPC   PO415626   2.869  20.994   4.062
 1364DOPC   GL115627   3.019  21.134   4.452
 1364DOPC   GL215628   3.019  21.411   4.372
 1364DOPC   C1A15629   3.109  21.044   4.852
 1364DOPC   D2A15630   2.969  20.614   4.972
 1364DOPC   C3A15631   3.319  20.304   4.882
 1364DOPC   C4A15632   3.549  20.064   5.242
 1364DOPC   C1B15633   3.069  21.761   4.722
 1364DOPC   D2B15634   2.969  21.871   5.132
 1364DOPC   C3B15635   2.929  21.751   5.582
 1364DOPC   C4B15636   3.009  21.354   5.702
 1365DOPC   NC315637   1.459  18.884   3.612
 1365DOPC   PO415638   1.879  18.804   3.732
 1365DOPC   GL115639   1.689  18.744   4.152
 1365DOPC   GL215640   1.899  18.424   4.182
 1365DOPC   C1A15641   1.339  18.744   4.422
 1365DOPC   D2A15642   1.069  18.674   4.702
 1365DOPC   C3A15643   0.959  18.894   5.102
 1365DOPC   C4A15644   1.209  19.174   5.282
 1365DOPC   C1B15645   1.919  18.084   4.302
 1365DOPC   D2B15646   1.949  17.704   4.572
 1365DOPC   C3B15647   1.709  17.534   4.892
 1365DOPC   C4B15648   1.249  17.424   4.912
 1366DOPC   NC315649  23.019  24.221   4.232
 1366DOPC   PO415650  22.699  24.241   3.902
 1366DOPC   GL115651  22.709  23.851   4.192
 1366DOPC   GL215652  22.769  23.941   4.492
 1366DOPC   C1A15653  22.409  23.551   4.512
 1366DOPC   D2A15654  22.179  23.651   4.902
 1366DOPC   C3A15655  22.099  23.691   5.362
 1366DOPC   C4A15656  21.809  23.791   5.702
 1366DOPC   C1B15657  22.849  23.831   4.972
 1366DOPC   D2B15658  22.889  24.011   5.332
 1366DOPC   C3B15659  22.599  24.041   5.612
 1366DOPC   C4B15660  22.259  24.061   5.652
 1367DOPC   NC315661   8.279   7.044   7.822
 1367DOPC   PO415662   8.709   6.884   7.802
 1367DOPC   GL115663   8.559   6.854   7.402
 1367DOPC   GL215664   8.409   7.184   7.332
 1367DOPC   C1A15665   8.639   6.904   6.912
 1367DOPC   D2A15666   8.729   7.024   6.482
 1367DOPC   C3A15667   8.739   7.404   6.182
 1367DOPC   C4A15668   9.079   7.564   6.002
 1367DOPC   C1B15669   8.499   7.384   6.952
 1367DOPC   D2B15670   8.789   7.714   6.782
 1367DOPC   C3B15671   9.079   7.664   6.492
 1367DOPC   C4B15672   9.559   7.614   6.612
 1368DOPC   NC315673  10.969  22.431   8.352
 1368DOPC   PO415674  10.809  22.051   8.362
 1368DOPC   GL115675  10.919  21.981   7.942
 1368DOPC   GL215676  10.999  21.721   7.752
 1368DOPC   C1A15677  10.939  22.041   7.422
 1368DOPC   D2A15678  10.649  22.411   7.132
 1368DOPC   C3A15679  10.599  22.171   6.682
 1368DOPC   C4A15680  10.289  22.031   6.452
 1368DOPC   C1B15681  10.979  21.531   7.302
 1368DOPC   D2B15682  10.829  21.451   6.802
 1368DOPC   C3B15683  10.749  21.711   6.512
 1368DOPC   C4B15684  10.959  22.041   6.332
 1369DOPC   NC315685   1.879   1.334   3.722
 1369DOPC   PO415686   1.629   1.024   3.922
 1369DOPC   GL115687   1.909   1.214   4.252
 1369DOPC   GL215688   1.849   1.064   4.462
 1369DOPC   C1A15689   2.329   1.034   4.272
 1369DOPC   D2A15690   2.729   1.024   4.652
 1369DOPC   C3A15691   2.879   0.694   4.662
 1369DOPC   C4A15692   2.989   0.294   4.622
 1369DOPC   C1B15693   2.199   1.104   4.722
 1369DOPC   D2B15694   2.449   0.924   5.022
 1369DOPC   C3B15695   2.509   1.004   5.462
 1369DOPC   C4B15696   2.779   1.254   5.812
 1370DOPC   NC315697   8.019  10.444   8.332
 1370DOPC   PO415698   7.949   9.994   8.212
 1370DOPC   GL115699   8.129  10.094   7.822
 1370DOPC   GL215700   8.069  10.394   7.812
 1370DOPC   C1A15701   8.159  10.054   7.312
 1370DOPC   D2A15702   8.019  10.024   6.912
 1370DOPC   C3A15703   8.239   9.824   6.582
 1370DOPC   C4A15704   8.659   9.734   6.532
 1370DOPC   C1B15705   8.429  10.434   7.482
 1370DOPC   D2B15706   8.419  10.424   7.142
 1370DOPC   C3B15707   8.599  10.154   6.902
 1370DOPC   C4B15708   8.689  10.314   6.482
 1371DOPC   NC315709   1.239  10.814   3.462
 1371DOPC   PO415710   1.119  10.444   3.522
 1371DOPC   GL115711   0.969  10.384   3.832
 1371DOPC   GL215712   0.799  10.154   3.852
 1371DOPC   C1A15713   1.019  10.474   4.232
 1371DOPC   D2A15714   1.179  10.484   4.792
 1371DOPC   C3A15715   1.099  10.094   5.072
 1371DOPC   C4A15716   0.859   9.664   5.102
 1371DOPC   C1B15717   0.639  10.154   4.222
 1371DOPC   D2B15718   0.609  10.474   4.592
 1371DOPC   C3B15719   0.659  10.244   4.922
 1371DOPC   C4B15720   0.339   9.994   5.202
 1372DOPC   NC315721  17.949  22.131   7.512
 1372DOPC   PO415722  17.909  22.641   7.482
 1372DOPC   GL115723  18.039  22.631   7.042
 1372DOPC   GL215724  18.209  22.741   6.852
 1372DOPC   C1A15725  17.869  22.321   6.662
 1372DOPC   D2A15726  17.779  22.291   6.282
 1372DOPC   C3A15727  18.179  22.041   6.092
 1372DOPC   C4A15728  18.309  22.011   5.652
 1372DOPC   C1B15729  18.359  22.541   6.472
 1372DOPC   D2B15730  18.529  22.541   6.032
 1372DOPC   C3B15731  18.169  22.621   5.762
 1372DOPC   C4B15732  17.879  22.291   5.812
 1373DOPC   NC315733  14.339  12.894   5.512
 1373DOPC   PO415734  14.479  12.584   5.062
 1373DOPC   GL115735  14.479  12.304   5.432
 1373DOPC   GL215736  14.489  12.384   5.742
 1373DOPC   C1A15737  14.669  11.944   5.712
 1373DOPC   D2A15738  15.019  11.684   5.882
 1373DOPC   C3A15739  15.109  11.444   6.122
 1373DOPC   C4A15740  15.369  11.194   6.382
 1373DOPC   C1B15741  14.739  12.684   5.992
 1373DOPC   D2B15742  14.679  12.794   6.432
 1373DOPC   C3B15743  14.509  12.474   6.502
 1373DOPC   C4B15744  14.249  12.174   6.592
 1374DOPC   NC315745   8.329   1.114   4.132
 1374DOPC   PO415746   8.179   0.674   3.942
 1374DOPC   GL115747   8.149   0.464   4.352
 1374DOPC   GL215748   8.039   0.124   4.352
 1374DOPC   C1A15749   8.319   0.584   4.832
 1374DOPC   D2A15750   8.309   0.704   5.352
 1374DOPC   C3A15751   7.989   0.814   5.602
 1374DOPC   C4A15752   7.879   0.924   6.062
 1374DOPC   C1B15753   7.659  -0.086   4.292
 1374DOPC   D2B15754   7.259  -0.206   4.452
 1374DOPC   C3B15755   7.239  -0.546   4.662
 1374DOPC   C4B15756   7.109  -0.956   4.772
 1375DOPC   NC315757  20.849  15.584   3.732
 1375DOPC   PO415758  20.569  15.074   3.782
 1375DOPC   GL115759  20.569  15.134   4.212
 1375DOPC   GL215760  20.529  14.944   4.312
 1375DOPC   C1A15761  20.449  15.194   4.692
 1375DOPC   D2A15762  20.489  15.304   5.082
 1375DOPC   C3A15763  20.139  15.384   5.312
 1375DOPC   C4A15764  20.029  15.544   5.742
 1375DOPC   C1B15765  20.659  14.744   4.562
 1375DOPC   D2B15766  20.799  14.574   4.932
 1375DOPC   C3B15767  21.179  14.614   5.172
 1375DOPC   C4B15768  21.369  15.054   5.192
 1376DOPC   NC315769  14.179   4.954   3.822
 1376DOPC   PO415770  14.299   4.804   4.252
 1376DOPC   GL115771  14.229   4.784   4.642
 1376DOPC   GL215772  14.459   4.574   4.722
 1376DOPC   C1A15773  14.319   4.944   5.032
 1376DOPC   D2A15774  14.519   5.204   5.282
 1376DOPC   C3A15775  14.629   5.154   5.802
 1376DOPC   C4A15776  14.339   5.244   6.192
 1376DOPC   C1B15777  14.859   4.724   4.872
 1376DOPC   D2B15778  14.949   5.104   4.982
 1376DOPC   C3B15779  14.859   5.534   5.002
 1376DOPC   C4B15780  14.779   5.894   5.092
 1377DOPC   NC315781  22.399  10.584   2.912
 1377DOPC   PO415782  22.199  10.424   3.252
 1377DOPC   GL115783  22.149  10.214   3.712
 1377DOPC   GL215784  21.889  10.314   3.952
 1377DOPC   C1A15785  22.319  10.024   4.062
 1377DOPC   D2A15786  22.619   9.894   4.442
 1377DOPC   C3A15787  22.619  10.024   4.922
 1377DOPC   C4A15788  22.579  10.184   5.332
 1377DOPC   C1B15789  22.209  10.564   4.102
 1377DOPC   D2B15790  22.279  10.964   4.182
 1377DOPC   C3B15791  22.109  10.764   4.592
 1377DOPC   C4B15792  22.189  10.524   4.912
 1378DOPC   NC315793  11.079  17.324   8.832
 1378DOPC   PO415794  10.749  17.644   8.612
 1378DOPC   GL115795  10.929  17.504   8.362
 1378DOPC   GL215796  11.209  17.324   8.252
 1378DOPC   C1A15797  10.809  17.374   7.982
 1378DOPC   D2A15798  10.789  17.204   7.532
 1378DOPC   C3A15799  10.929  17.004   7.262
 1378DOPC   C4A15800  11.049  17.204   6.842
 1378DOPC   C1B15801  11.219  17.344   7.742
 1378DOPC   D2B15802  11.359  16.894   7.532
 1378DOPC   C3B15803  11.459  16.874   7.102
 1378DOPC   C4B15804  11.349  16.844   6.582
 1379DOPC   NC315805  15.579   7.994   4.022
 1379DOPC   PO415806  15.669   8.214   4.402
 1379DOPC   GL115807  15.579   8.034   4.882
 1379DOPC   GL215808  15.759   8.044   5.252
 1379DOPC   C1A15809  15.229   8.204   5.162
 1379DOPC   D2A15810  14.979   8.464   5.432
 1379DOPC   C3A15811  15.189   8.754   5.752
 1379DOPC   C4A15812  15.059   9.114   5.982
 1379DOPC   C1B15813  15.989   7.754   5.422
 1379DOPC   D2B15814  16.389   7.664   5.422
 1379DOPC   C3B15815  16.579   7.774   5.842
 1379DOPC   C4B15816  16.669   8.044   6.142
 1380DOPC   NC315817  16.709  20.264   3.332
 1380DOPC   PO415818  16.579  20.064   3.672
 1380DOPC   GL115819  16.529  19.964   4.142
 1380DOPC   GL215820  16.359  20.234   4.342
 1380DOPC   C1A15821  16.519  19.794   4.662
 1380DOPC   D2A15822  16.529  19.534   5.092
 1380DOPC   C3A15823  16.139  19.384   5.362
 1380DOPC   C4A15824  16.029  19.454   5.712
 1380DOPC   C1B15825  16.639  20.284   4.672
 1380DOPC   D2B15826  16.839  20.404   4.912
 1380DOPC   C3B15827  17.159  20.214   5.162
 1380DOPC   C4B15828  17.549  20.034   5.202
 1381DOPC   NC315829   2.409  22.651   8.142
 1381DOPC   PO415830   2.839  22.641   7.922
 1381DOPC   GL115831   2.889  22.831   7.482
 1381DOPC   GL215832   2.659  23.011   7.202
 1381DOPC   C1A15833   3.109  22.791   7.022
 1381DOPC   D2A15834   3.289  22.511   6.662
 1381DOPC   C3A15835   3.329  22.611   6.182
 1381DOPC   C4A15836   3.089  22.661   5.682
 1381DOPC   C1B15837   2.609  23.001   6.792
 1381DOPC   D2B15838   2.569  23.271   6.452
 1381DOPC   C3B15839   2.819  23.131   6.172
 1381DOPC   C4B15840   3.289  23.171   6.232
 1382DOPC   NC315841  10.839   4.334   8.112
 1382DOPC   PO415842  11.119   3.854   8.212
 1382DOPC   GL115843  11.169   3.944   7.702
 1382DOPC   GL215844  11.509   4.104   7.662
 1382DOPC   C1A15845  11.169   3.694   7.352
 1382DOPC   D2A15846  11.179   3.624   6.972
 1382DOPC   C3A15847  11.469   3.304   6.672
 1382DOPC   C4A15848  11.579   3.224   6.232
 1382DOPC   C1B15849  11.259   4.154   7.252
 1382DOPC   D2B15850  11.189   4.184   6.762
 1382DOPC   C3B15851  11.489   3.904   6.522
 1382DOPC   C4B15852  11.899   3.914   6.322
 1383DOPC   NC315853  14.399  16.604   8.002
 1383DOPC   PO415854  14.259  17.024   7.982
 1383DOPC   GL115855  14.189  17.144   7.662
 1383DOPC   GL215856  13.829  17.194   7.702
 1383DOPC   C1A15857  14.239  17.364   7.342
 1383DOPC   D2A15858  14.149  17.444   6.862
 1383DOPC   C3A15859  14.309  17.864   6.652
 1383DOPC   C4A15860  14.439  18.174   6.432
 1383DOPC   C1B15861  13.409  17.154   7.472
 1383DOPC   D2B15862  13.149  17.434   7.112
 1383DOPC   C3B15863  13.189  17.374   6.712
 1383DOPC   C4B15864  13.119  17.214   6.302
 1384DOPC   NC315865  11.829  21.881   4.742
 1384DOPC   PO415866  11.629  21.521   4.752
 1384DOPC   GL115867  11.609  21.641   5.222
 1384DOPC   GL215868  11.839  21.801   5.232
 1384DOPC   C1A15869  11.259  21.721   5.542
 1384DOPC   D2A15870  11.179  21.371   5.952
 1384DOPC   C3A15871  11.129  21.551   6.322
 1384DOPC   C4A15872  11.449  21.521   6.552
 1384DOPC   C1B15873  11.749  21.831   5.722
 1384DOPC   D2B15874  11.439  21.831   6.012
 1384DOPC   C3B15875  11.159  22.261   5.952
 1384DOPC   C4B15876  10.919  22.581   6.082
 1385DOPC   NC315877  12.779   8.154   8.152
 1385DOPC   PO415878  12.419   8.264   8.382
 1385DOPC   GL115879  12.259   8.244   8.012
 1385DOPC   GL215880  12.119   8.514   8.012
 1385DOPC   C1A15881  12.109   8.224   7.582
 1385DOPC   D2A15882  12.039   8.514   7.312
 1385DOPC   C3A15883  12.179   8.304   7.062
 1385DOPC   C4A15884  12.159   8.154   6.532
 1385DOPC   C1B15885  12.009   8.904   7.682
 1385DOPC   D2B15886  12.149   9.284   7.372
 1385DOPC   C3B15887  12.439   9.374   7.022
 1385DOPC   C4B15888  12.319   9.704   6.772
 1386DOPC   NC315889  17.619  22.111   3.412
 1386DOPC   PO415890  17.809  21.881   3.772
 1386DOPC   GL115891  17.929  21.811   4.212
 1386DOPC   GL215892  17.519  21.621   4.122
 1386DOPC   C1A15893  18.189  21.701   4.572
 1386DOPC   D2A15894  18.339  21.401   4.942
 1386DOPC   C3A15895  18.059  21.164   5.212
 1386DOPC   C4A15896  17.869  20.944   5.442
 1386DOPC   C1B15897  17.639  21.551   4.552
 1386DOPC   D2B15898  17.769  21.771   4.932
 1386DOPC   C3B15899  18.259  21.891   5.032
 1386DOPC   C4B15900  18.669  21.961   5.212
 1387DOPC   NC315901  11.759   8.214   8.242
 1387DOPC   PO415902  11.309   8.264   8.262
 1387DOPC   GL115903  11.349   8.184   7.902
 1387DOPC   GL215904  11.079   8.264   7.682
 1387DOPC   C1A15905  11.609   8.114   7.492
 1387DOPC   D2A15906  11.619   8.194   7.062
 1387DOPC   C3A15907  11.349   8.434   6.862
 1387DOPC   C4A15908  11.479   8.734   6.472
 1387DOPC   C1B15909  11.079   8.254   7.262
 1387DOPC   D2B15910  10.909   8.124   6.822
 1387DOPC   C3B15911  11.219   7.984   6.692
 1387DOPC   C4B15912  11.639   8.164   6.552
 1388DOPC   NC315913   4.659   7.674   6.942
 1388DOPC   PO415914   4.709   7.904   6.612
 1388DOPC   GL115915   4.679   8.094   6.282
 1388DOPC   GL215916   4.439   8.084   5.972
 1388DOPC   C1A15917   4.899   8.054   5.852
 1388DOPC   D2A15918   4.999   8.054   5.422
 1388DOPC   C3A15919   4.589   8.054   5.172
 1388DOPC   C4A15920   4.389   8.104   4.772
 1388DOPC   C1B15921   4.369   7.884   5.612
 1388DOPC   D2B15922   4.329   7.554   5.262
 1388DOPC   C3B15923   4.039   7.644   4.962
 1388DOPC   C4B15924   4.119   7.654   4.532
 1389DOPC   NC315925  24.839  20.444   3.592
 1389DOPC   PO415926  24.419  20.354   3.572
 1389DOPC   GL115927  24.389  20.324   4.032
 1389DOPC   GL215928  24.569  20.174   4.102
 1389DOPC   C1A15929  24.189  20.554   4.382
 1389DOPC   D2A15930  24.199  20.994   4.472
 1389DOPC   C3A15931  24.139  21.084   4.882
 1389DOPC   C4A15932  23.899  21.064   5.262
 1389DOPC   C1B15933  24.589  20.264   4.532
 1389DOPC   D2B15934  24.569  20.224   4.962
 1389DOPC   C3B15935  24.829  20.274   5.332
 1389DOPC   C4B15936  25.139  20.014   5.412
 1390DOPC   NC315937   7.239  23.091   3.962
 1390DOPC   PO415938   7.009  22.701   4.152
 1390DOPC   GL115939   6.769  22.901   4.532
 1390DOPC   GL215940   6.539  23.141   4.702
 1390DOPC   C1A15941   6.959  22.911   4.992
 1390DOPC   D2A15942   7.009  23.001   5.462
 1390DOPC   C3A15943   7.199  22.691   5.672
 1390DOPC   C4A15944   7.579  22.331   5.892
 1390DOPC   C1B15945   6.439  22.941   5.092
 1390DOPC   D2B15946   6.539  22.741   5.472
 1390DOPC   C3B15947   6.369  22.431   5.692
 1390DOPC   C4B15948   6.049  22.121   5.832
 1391DOPC   NC315949  10.589  13.534   4.802
 1391DOPC   PO415950  10.519  13.144   4.512
 1391DOPC   GL115951  10.299  13.114   4.952
 1391DOPC   GL215952   9.959  13.184   4.992
 1391DOPC   C1A15953  10.279  13.224   5.402
 1391DOPC   D2A15954  10.379  13.204   5.822
 1391DOPC   C3A15955  10.249  12.804   5.972
 1391DOPC   C4A15956   9.959  12.524   5.612
 1391DOPC   C1B15957   9.779  12.924   5.402
 1391DOPC   D2B15958   9.909  13.134   5.732
 1391DOPC   C3B15959   9.619  13.194   6.072
 1391DOPC   C4B15960   9.379  13.444   6.242
 1392DOPC   NC315961  -0.119   8.864   2.682
 1392DOPC   PO415962  -0.329   8.884   3.052
 1392DOPC   GL115963  -0.189   8.844   3.442
 1392DOPC   GL215964  -0.369   9.124   3.662
 1392DOPC   C1A15965   0.259   8.664   3.642
 1392DOPC   D2A15966   0.539   8.594   3.912
 1392DOPC   C3A15967   0.439   8.664   4.272
 1392DOPC   C4A15968   0.369   8.944   4.582
 1392DOPC   C1B15969  -0.069   8.914   3.942
 1392DOPC   D2B15970   0.079   9.094   4.232
 1392DOPC   C3B15971   0.031   9.444   4.412
 1392DOPC   C4B15972  -0.059   9.924   4.332
 1393DOPC   NC315973   9.459  12.444   4.262
 1393DOPC   PO415974   9.579  11.994   4.332
 1393DOPC   GL115975   9.459  11.724   4.632
 1393DOPC   GL215976   9.749  11.604   4.762
 1393DOPC   C1A15977   9.209  11.754   5.002
 1393DOPC   D2A15978   8.899  11.584   5.242
 1393DOPC   C3A15979   8.699  11.924   5.422
 1393DOPC   C4A15980   8.609  11.974   5.712
 1393DOPC   C1B15981   9.799  11.634   5.192
 1393DOPC   D2B15982   9.509  11.474   5.522
 1393DOPC   C3B15983   9.469  11.074   5.732
 1393DOPC   C4B15984   9.779  10.864   5.812
 1394DOPC   NC315985  21.459  23.431   7.782
 1394DOPC   PO415986  21.059  23.271   7.462
 1394DOPC   GL115987  21.069  23.471   7.032
 1394DOPC   GL215988  20.909  23.281   6.812
 1394DOPC   C1A15989  21.489  23.631   6.832
 1394DOPC   D2A15990  21.739  23.891   6.702
 1394DOPC   C3A15991  21.999  23.971   6.502
 1394DOPC   C4A15992  21.999  24.181   6.082
 1394DOPC   C1B15993  21.099  23.401   6.472
 1394DOPC   D2B15994  21.399  23.341   6.092
 1394DOPC   C3B15995  21.329  23.691   5.772
 1394DOPC   C4B15996  21.549  24.181   5.852
 1395DOPC   NC315997   3.789  23.621   7.432
 1395DOPC   PO415998   4.029  23.991   7.462
 1395DOPC   GL115999   4.049  24.021   7.062
 1395DOPC   GL216000   3.879  23.731   6.932
 1395DOPC   C1A16001   4.079  24.061   6.632
 1395DOPC   D2A16002   3.929  24.081   6.132
 1395DOPC   C3A16003   3.519  23.941   6.062
 1395DOPC   C4A16004   3.309  23.751   5.622
 1395DOPC   C1B16005   3.569  24.071   6.632
 1395DOPC   D2B16006   3.309  24.361   6.362
 1395DOPC   C3B16007   3.249  24.381   5.852
 1395DOPC   C4B16008   3.109  24.201   5.472
 1396DOPC   NC316009  22.709  12.964   3.562
 1396DOPC   PO416010  22.799  13.374   3.632
 1396DOPC   GL116011  22.799  13.474   3.952
 1396DOPC   GL216012  23.029  13.754   4.112
 1396DOPC   C1A16013  22.789  13.374   4.372
 1396DOPC   D2A16014  22.739  13.354   4.752
 1396DOPC   C3A16015  22.449  13.714   4.892
 1396DOPC   C4A16016  21.989  13.894   4.752
 1396DOPC   C1B16017  23.199  13.564   4.532
 1396DOPC   D2B16018  23.229  13.354   4.932
 1396DOPC   C3B16019  23.229  13.454   5.442
 1396DOPC   C4B16020  22.949  13.604   5.712
 1397DOPC   NC316021   0.919  -0.186   7.552
 1397DOPC   PO416022   0.439  -0.126   7.562
 1397DOPC   GL116023   0.419   0.014   7.132
 1397DOPC   GL216024   0.549   0.294   7.002
 1397DOPC   C1A16025   0.759  -0.096   6.802
 1397DOPC   D2A16026   1.009   0.014   6.372
 1397DOPC   C3A16027   0.999  -0.266   5.992
 1397DOPC   C4A16028   1.349  -0.446   5.642
 1397DOPC   C1B16029   0.589   0.274   6.572
 1397DOPC   D2B16030   0.469   0.324   6.182
 1397DOPC   C3B16031   0.199   0.654   5.912
 1397DOPC   C4B16032  -0.139   0.614   5.752
 1398DOPC   NC316033  20.919  19.554   7.122
 1398DOPC   PO416034  21.229  19.884   6.972
 1398DOPC   GL116035  21.049  19.554   6.632
 1398DOPC   GL216036  20.729  19.344   6.702
 1398DOPC   C1A16037  21.439  19.494   6.342
 1398DOPC   D2A16038  21.779  19.444   5.942
 1398DOPC   C3A16039  21.819  19.804   5.622
 1398DOPC   C4A16040  21.999  20.264   5.812
 1398DOPC   C1B16041  20.949  19.454   6.182
 1398DOPC   D2B16042  20.999  19.314   5.732
 1398DOPC   C3B16043  21.409  19.454   5.542
 1398DOPC   C4B16044  21.839  19.374   5.302
 1399DOPC   NC316045  13.499  11.514   4.962
 1399DOPC   PO416046  13.689  11.274   5.222
 1399DOPC   GL116047  13.629  11.204   5.682
 1399DOPC   GL216048  13.269  11.324   5.742
 1399DOPC   C1A16049  13.549  11.114   6.112
 1399DOPC   D2A16050  13.819  11.094   6.452
 1399DOPC   C3A16051  14.089  10.604   6.702
 1399DOPC   C4A16052  14.199  10.144   6.862
 1399DOPC   C1B16053  13.009  11.294   6.072
 1399DOPC   D2B16054  13.289  11.294   6.482
 1399DOPC   C3B16055  13.369  11.674   6.692
 1399DOPC   C4B16056  13.369  12.034   7.022
 1400DOPC   NC316057   0.329  13.414   3.852
 1400DOPC   PO416058   0.479  13.024   3.822
 1400DOPC   GL116059   0.139  12.994   4.082
 1400DOPC   GL216060   0.349  13.184   4.332
 1400DOPC   C1A16061  -0.059  12.864   4.512
 1400DOPC   D2A16062   0.021  12.834   4.992
 1400DOPC   C3A16063  -0.199  12.684   5.372
 1400DOPC   C4A16064  -0.059  12.594   5.632
 1400DOPC   C1B16065   0.419  13.014   4.722
 1400DOPC   D2B16066   0.539  12.854   5.212
 1400DOPC   C3B16067   0.189  13.114   5.432
 1400DOPC   C4B16068  -0.199  13.234   5.672
 1401DOPC   NC316069  22.459  21.931   7.412
 1401DOPC   PO416070  22.009  21.901   7.562
 1401DOPC   GL116071  22.119  21.991   7.072
 1401DOPC   GL216072  22.199  21.701   6.942
 1401DOPC   C1A16073  22.139  22.201   6.752
 1401DOPC   D2A16074  21.879  22.151   6.372
 1401DOPC   C3A16075  21.719  22.481   6.252
 1401DOPC   C4A16076  22.089  22.691   6.102
 1401DOPC   C1B16077  22.379  21.481   6.712
 1401DOPC   D2B16078  22.769  21.501   6.562
 1401DOPC   C3B16079  23.089  21.781   6.622
 1401DOPC   C4B16080  23.019  22.271   6.812
 1402DOPC   NC316081   1.649   2.924   3.102
 1402DOPC   PO416082   1.779   3.284   3.302
 1402DOPC   GL116083   1.719   3.414   3.762
 1402DOPC   GL216084   1.549   3.114   3.952
 1402DOPC   C1A16085   1.299   3.634   3.962
 1402DOPC   D2A16086   0.849   3.574   4.112
 1402DOPC   C3A16087   0.589   3.834   4.292
 1402DOPC   C4A16088   0.259   3.714   4.562
 1402DOPC   C1B16089   1.719   3.174   4.262
 1402DOPC   D2B16090   1.819   3.514   4.522
 1402DOPC   C3B16091   1.859   3.474   4.952
 1402DOPC   C4B16092   1.539   3.474   5.362
 1403DOPC   NC316093   1.549   4.044   3.052
 1403DOPC   PO416094   1.339   4.374   3.112
 1403DOPC   GL116095   1.259   4.304   3.572
 1403DOPC   GL216096   0.949   4.224   3.602
 1403DOPC   C1A16097   1.289   4.464   4.012
 1403DOPC   D2A16098   1.169   4.744   4.402
 1403DOPC   C3A16099   1.389   4.694   4.812
 1403DOPC   C4A16100   1.179   4.584   5.152
 1403DOPC   C1B16101   1.029   4.064   4.002
 1403DOPC   D2B16102   1.009   4.254   4.422
 1403DOPC   C3B16103   1.149   4.204   4.862
 1403DOPC   C4B16104   1.179   3.814   5.252
 1404DOPC   NC316105  18.759   0.824   7.632
 1404DOPC   PO416106  18.209   0.704   7.602
 1404DOPC   GL116107  18.079   0.704   7.202
 1404DOPC   GL216108  17.829   0.404   7.062
 1404DOPC   C1A16109  18.159   0.964   6.802
 1404DOPC   D2A16110  18.339   1.054   6.452
 1404DOPC   C3A16111  18.409   0.704   6.052
 1404DOPC   C4A16112  18.729   0.734   5.742
 1404DOPC   C1B16113  18.109   0.414   6.662
 1404DOPC   D2B16114  17.949   0.474   6.152
 1404DOPC   C3B16115  17.639   0.164   6.002
 1404DOPC   C4B16116  17.429   0.054   5.732
 1405DOPC   NC316117   4.889  20.234   4.162
 1405DOPC   PO416118   4.529  20.054   4.302
 1405DOPC   GL116119   4.749  20.124   4.672
 1405DOPC   GL216120   4.729  19.894   4.842
 1405DOPC   C1A16121   4.739  20.414   5.002
 1405DOPC   D2A16122   4.809  20.534   5.362
 1405DOPC   C3A16123   4.579  20.794   5.692
 1405DOPC   C4A16124   4.319  20.994   6.042
 1405DOPC   C1B16125   4.409  19.664   5.102
 1405DOPC   D2B16126   4.279  19.714   5.532
 1405DOPC   C3B16127   3.819  19.824   5.652
 1405DOPC   C4B16128   3.519  19.684   5.942
 1406DOPC   NC316129  18.459  17.824   3.562
 1406DOPC   PO416130  18.779  17.504   3.582
 1406DOPC   GL116131  18.969  17.394   3.982
 1406DOPC   GL216132  18.729  17.264   4.202
 1406DOPC   C1A16133  19.279  17.334   4.352
 1406DOPC   D2A16134  19.349  17.154   4.712
 1406DOPC   C3A16135  19.649  16.844   4.752
 1406DOPC   C4A16136  19.989  16.824   4.482
 1406DOPC   C1B16137  18.829  17.154   4.642
 1406DOPC   D2B16138  19.029  16.954   5.022
 1406DOPC   C3B16139  19.229  17.174   5.402
 1406DOPC   C4B16140  19.299  17.104   5.792
 1407DOPC   NC316141   5.289   6.304   3.262
 1407DOPC   PO416142   5.249   6.034   3.552
 1407DOPC   GL116143   5.349   6.294   3.902
 1407DOPC   GL216144   5.219   6.584   3.812
 1407DOPC   C1A16145   5.509   6.324   4.222
 1407DOPC   D2A16146   5.539   6.354   4.642
 1407DOPC   C3A16147   5.299   6.074   4.952
 1407DOPC   C4A16148   5.129   6.144   5.472
 1407DOPC   C1B16149   5.529   6.854   4.062
 1407DOPC   D2B16150   5.659   6.974   4.522
 1407DOPC   C3B16151   5.719   7.324   4.692
 1407DOPC   C4B16152   5.999   7.544   5.022
 1408DOPC   NC316153  12.119   2.704   4.122
 1408DOPC   PO416154  12.069   2.324   4.382
 1408DOPC   GL116155  11.839   2.394   4.712
 1408DOPC   GL216156  11.439   2.464   4.592
 1408DOPC   C1A16157  11.779   2.434   5.222
 1408DOPC   D2A16158  11.739   2.554   5.542
 1408DOPC   C3A16159  11.289   2.714   5.632
 1408DOPC   C4A16160  10.969   2.914   5.992
 1408DOPC   C1B16161  11.379   2.524   4.942
 1408DOPC   D2B16162  11.049   2.704   5.172
 1408DOPC   C3B16163  11.069   3.104   5.022
 1408DOPC   C4B16164  11.299   3.534   5.132
 1409DOPC   NC316165   4.019   7.304   2.288
 1409DOPC   PO416166   4.179   6.814   2.488
 1409DOPC   GL116167   4.029   6.794   2.992
 1409DOPC   GL216168   4.219   6.874   3.162
 1409DOPC   C1A16169   3.769   6.664   3.262
 1409DOPC   D2A16170   3.799   6.684   3.672
 1409DOPC   C3A16171   3.799   7.014   3.892
 1409DOPC   C4A16172   3.849   7.274   4.232
 1409DOPC   C1B16173   4.279   6.934   3.542
 1409DOPC   D2B16174   4.229   7.234   3.822
 1409DOPC   C3B16175   3.939   7.554   3.852
 1409DOPC   C4B16176   3.949   7.964   3.742
 1410DOPC   NC316177   5.199  25.431   3.862
 1410DOPC   PO416178   4.729  25.241   3.762
 1410DOPC   GL116179   4.799  25.321   4.162
 1410DOPC   GL216180   4.809  25.591   4.222
 1410DOPC   C1A16181   4.839  25.151   4.642
 1410DOPC   D2A16182   4.929  24.651   4.872
 1410DOPC   C3A16183   5.189  24.721   5.232
 1410DOPC   C4A16184   5.259  24.991   5.622
 1410DOPC   C1B16185   4.599  25.571   4.672
 1410DOPC   D2B16186   4.669  25.331   5.112
 1410DOPC   C3B16187   5.029  25.191   5.092
 1410DOPC   C4B16188   5.409  25.261   5.202
 1411DOPC   NC316189  18.729   2.914   3.602
 1411DOPC   PO416190  18.469   3.004   3.982
 1411DOPC   GL116191  18.419   2.594   4.352
 1411DOPC   GL216192  18.759   2.484   4.482
 1411DOPC   C1A16193  18.249   2.304   4.662
 1411DOPC   D2A16194  17.929   1.984   4.682
 1411DOPC   C3A16195  17.989   1.484   4.642
 1411DOPC   C4A16196  17.799   1.134   4.782
 1411DOPC   C1B16197  18.869   2.424   4.972
 1411DOPC   D2B16198  18.799   2.364   5.392
 1411DOPC   C3B16199  18.929   1.984   5.542
 1411DOPC   C4B16200  18.909   1.674   5.812
 1412DOPC   NC316201  18.049   7.244   3.852
 1412DOPC   PO416202  17.769   7.004   4.092
 1412DOPC   GL116203  17.949   6.864   4.462
 1412DOPC   GL216204  17.769   6.824   4.642
 1412DOPC   C1A16205  18.259   6.694   4.842
 1412DOPC   D2A16206  18.629   6.734   5.092
 1412DOPC   C3A16207  18.789   7.064   5.212
 1412DOPC   C4A16208  18.639   6.884   5.592
 1412DOPC   C1B16209  17.819   6.914   5.092
 1412DOPC   D2B16210  17.769   7.184   5.372
 1412DOPC   C3B16211  18.049   7.404   5.612
 1412DOPC   C4B16212  18.179   7.754   5.862
 1413DOPC   NC316213  24.139   0.124   3.532
 1413DOPC   PO416214  24.409   0.094   3.792
 1413DOPC   GL116215  24.339   0.384   4.192
 1413DOPC   GL216216  24.749   0.404   4.352
 1413DOPC   C1A16217  24.039   0.424   4.482
 1413DOPC   D2A16218  23.869   0.214   4.782
 1413DOPC   C3A16219  24.089   0.284   5.222
 1413DOPC   C4A16220  24.389   0.144   5.482
 1413DOPC   C1B16221  24.899   0.144   4.602
 1413DOPC   D2B16222  24.999  -0.096   4.962
 1413DOPC   C3B16223  25.269  -0.366   4.882
 1413DOPC   C4B16224  25.569  -0.636   4.652
 1414DOPC   NC316225  15.939  22.501   8.272
 1414DOPC   PO416226  15.959  22.191   7.922
 1414DOPC   GL116227  15.769  22.241   7.502
 1414DOPC   GL216228  15.449  22.441   7.502
 1414DOPC   C1A16229  15.729  22.311   7.042
 1414DOPC   D2A16230  15.819  22.241   6.622
 1414DOPC   C3A16231  15.509  22.441   6.252
 1414DOPC   C4A16232  15.339  22.751   5.982
 1414DOPC   C1B16233  15.129  22.331   7.232
 1414DOPC   D2B16234  14.959  22.391   6.802
 1414DOPC   C3B16235  14.699  22.811   6.662
 1414DOPC   C4B16236  14.479  23.181   6.712
 1415DOPC   NC316237  12.409  15.244   9.142
 1415DOPC   PO416238  11.969  15.374   9.282
 1415DOPC   GL116239  12.029  15.294   8.792
 1415DOPC   GL216240  12.269  15.354   8.412
 1415DOPC   C1A16241  12.179  14.894   8.582
 1415DOPC   D2A16242  12.199  14.724   8.212
 1415DOPC   C3A16243  12.279  14.354   7.892
 1415DOPC   C4A16244  12.479  14.204   7.562
 1415DOPC   C1B16245  12.349  15.174   7.942
 1415DOPC   D2B16246  12.479  14.814   7.822
 1415DOPC   C3B16247  12.249  14.634   7.462
 1415DOPC   C4B16248  12.499  14.694   7.022
 1416DOPC   NC316249  15.949   1.234   4.122
 1416DOPC   PO416250  15.629   1.374   4.462
 1416DOPC   GL116251  15.829   1.154   4.662
 1416DOPC   GL216252  15.519   1.024   4.822
 1416DOPC   C1A16253  16.089   1.344   4.942
 1416DOPC   D2A16254  16.409   1.514   4.962
 1416DOPC   C3A16255  16.449   1.574   5.302
 1416DOPC   C4A16256  16.269   1.454   5.722
 1416DOPC   C1B16257  15.629   0.994   5.302
 1416DOPC   D2B16258  15.579   1.234   5.662
 1416DOPC   C3B16259  15.269   1.164   6.042
 1416DOPC   C4B16260  15.129   1.224   6.452
 1417DOPC   NC316261   2.099  17.924   2.922
 1417DOPC   PO416262   2.229  17.884   3.392
 1417DOPC   GL116263   2.269  17.994   3.822
 1417DOPC   GL216264   2.269  17.834   4.052
 1417DOPC   C1A16265   2.359  18.344   4.072
 1417DOPC   D2A16266   2.249  18.514   4.482
 1417DOPC   C3A16267   1.929  18.364   4.752
 1417DOPC   C4A16268   1.559  18.014   4.762
 1417DOPC   C1B16269   2.489  18.064   4.462
 1417DOPC   D2B16270   2.409  18.194   4.922
 1417DOPC   C3B16271   2.079  17.994   5.042
 1417DOPC   C4B16272   1.889  17.764   5.432
 1418DOPC   NC316273  19.549  16.694   8.062
 1418DOPC   PO416274  19.389  17.094   7.682
 1418DOPC   GL116275  19.369  16.974   7.302
 1418DOPC   GL216276  19.489  17.134   7.112
 1418DOPC   C1A16277  19.579  16.634   6.962
 1418DOPC   D2A16278  19.839  16.684   6.632
 1418DOPC   C3A16279  19.959  16.744   6.212
 1418DOPC   C4A16280  19.839  16.974   5.742
 1418DOPC   C1B16281  19.219  17.074   6.762
 1418DOPC   D2B16282  19.049  17.064   6.272
 1418DOPC   C3B16283  18.779  17.014   5.892
 1418DOPC   C4B16284  18.789  16.954   5.462
 1419DOPC   NC316285   6.319   3.424   4.122
 1419DOPC   PO416286   6.759   3.104   3.822
 1419DOPC   GL116287   6.779   3.294   4.242
 1419DOPC   GL216288   6.929   3.144   4.302
 1419DOPC   C1A16289   6.889   3.484   4.702
 1419DOPC   D2A16290   6.879   3.704   5.082
 1419DOPC   C3A16291   6.589   3.534   5.422
 1419DOPC   C4A16292   6.719   3.384   5.942
 1419DOPC   C1B16293   7.329   3.224   4.612
 1419DOPC   D2B16294   7.639   3.364   4.832
 1419DOPC   C3B16295   8.019   3.084   4.952
 1419DOPC   C4B16296   8.179   2.824   4.682
 1420DOPC   NC316297   4.029  12.874   7.592
 1420DOPC   PO416298   4.009  12.544   7.402
 1420DOPC   GL116299   3.969  12.374   7.072
 1420DOPC   GL216300   3.809  12.114   7.002
 1420DOPC   C1A16301   3.719  12.544   6.762
 1420DOPC   D2A16302   3.479  12.914   6.662
 1420DOPC   C3A16303   3.439  12.824   6.172
 1420DOPC   C4A16304   3.439  12.454   5.872
 1420DOPC   C1B16305   4.039  12.094   6.622
 1420DOPC   D2B16306   4.079  11.894   6.202
 1420DOPC   C3B16307   3.839  12.124   5.922
 1420DOPC   C4B16308   3.869  12.224   5.612
 1421DOPC   NC316309   3.829  10.544   2.912
 1421DOPC   PO416310   3.509  10.514   3.222
 1421DOPC   GL116311   3.629  10.434   3.612
 1421DOPC   GL216312   3.789  10.694   3.622
 1421DOPC   C1A16313   3.449  10.154   4.042
 1421DOPC   D2A16314   3.499  10.294   4.482
 1421DOPC   C3A16315   3.819  10.584   4.612
 1421DOPC   C4A16316   3.999  10.844   4.862
 1421DOPC   C1B16317   3.899  10.454   3.982
 1421DOPC   D2B16318   4.069  10.304   4.322
 1421DOPC   C3B16319   3.939  10.004   4.602
 1421DOPC   C4B16320   3.769   9.924   4.972
 1422DOPC   NC316321  23.459  25.791   3.742
 1422DOPC   PO416322  23.559  25.371   3.592
 1422DOPC   GL116323  23.629  25.441   4.042
 1422DOPC   GL216324  23.979  25.501   4.322
 1422DOPC   C1A16325  23.549  25.751   4.402
 1422DOPC   D2A16326  23.309  25.871   4.792
 1422DOPC   C3A16327  23.159  25.721   5.122
 1422DOPC   C4A16328  23.269  25.531   5.532
 1422DOPC   C1B16329  24.369  25.631   4.622
 1422DOPC   D2B16330  24.499  25.441   5.052
 1422DOPC   C3B16331  24.099  25.331   5.342
 1422DOPC   C4B16332  23.709  25.291   5.522
 1423DOPC   NC316333  17.199   0.494   2.952
 1423DOPC   PO416334  17.199   0.504   3.482
 1423DOPC   GL116335  17.129   0.344   3.892
 1423DOPC   GL216336  16.829   0.224   3.942
 1423DOPC   C1A16337  17.319   0.014   4.082
 1423DOPC   D2A16338  17.339  -0.336   4.342
 1423DOPC   C3A16339  17.459  -0.426   4.732
 1423DOPC   C4A16340  17.309  -0.606   5.112
 1423DOPC   C1B16341  16.909   0.354   4.362
 1423DOPC   D2B16342  17.359   0.354   4.552
 1423DOPC   C3B16343  17.529   0.074   4.822
 1423DOPC   C4B16344  17.379  -0.076   5.192
 1424DOPC   NC316345  14.669   4.094   3.682
 1424DOPC   PO416346  14.629   4.054   4.092
 1424DOPC   GL116347  14.689   4.154   4.562
 1424DOPC   GL216348  14.509   3.974   4.672
 1424DOPC   C1A16349  14.809   4.214   4.992
 1424DOPC   D2A16350  14.999   4.194   5.382
 1424DOPC   C3A16351  15.089   4.384   5.822
 1424DOPC   C4A16352  14.919   4.754   5.952
 1424DOPC   C1B16353  14.359   3.884   4.982
 1424DOPC   D2B16354  14.199   3.694   5.302
 1424DOPC   C3B16355  14.079   3.734   5.732
 1424DOPC   C4B16356  14.289   3.814   6.092
 1425DOPC   NC316357   1.949   7.294   2.822
 1425DOPC   PO416358   1.589   7.294   2.752
 1425DOPC   GL116359   1.629   7.534   3.162
 1425DOPC   GL216360   1.929   7.484   3.352
 1425DOPC   C1A16361   1.629   8.004   3.382
 1425DOPC   D2A16362   1.589   8.414   3.602
 1425DOPC   C3A16363   1.519   8.364   4.062
 1425DOPC   C4A16364   1.529   7.934   4.252
 1425DOPC   C1B16365   1.759   7.164   3.592
 1425DOPC   D2B16366   1.529   6.954   3.922
 1425DOPC   C3B16367   1.219   7.064   4.232
 1425DOPC   C4B16368   0.989   7.124   4.522
 1426DOPC   NC316369   5.959   6.544   7.322
 1426DOPC   PO416370   6.419   6.354   7.072
 1426DOPC   GL116371   6.029   6.214   6.862
 1426DOPC   GL216372   5.709   6.344   6.962
 1426DOPC   C1A16373   5.809   5.984   6.512
 1426DOPC   D2A16374   5.949   6.024   6.002
 1426DOPC   C3A16375   6.239   5.734   5.762
 1426DOPC   C4A16376   6.439   5.674   5.442
 1426DOPC   C1B16377   5.529   6.404   6.582
 1426DOPC   D2B16378   5.429   6.674   6.232
 1426DOPC   C3B16379   5.449   6.594   5.842
 1426DOPC   C4B16380   5.379   6.564   5.432
 1427DOPC   NC316381   9.629   6.324   7.812
 1427DOPC   PO416382   9.329   6.024   7.742
 1427DOPC   GL116383   9.349   5.954   7.392
 1427DOPC   GL216384   9.349   5.694   7.352
 1427DOPC   C1A16385   9.439   6.154   6.972
 1427DOPC   D2A16386   9.419   6.294   6.552
 1427DOPC   C3A16387   9.669   6.704   6.362
 1427DOPC   C4A16388   9.809   6.854   5.982
 1427DOPC   C1B16389   9.249   5.684   6.852
 1427DOPC   D2B16390   9.179   5.644   6.442
 1427DOPC   C3B16391   9.019   5.454   6.202
 1427DOPC   C4B16392   8.749   5.264   5.982
 1428DOPC   NC316393  24.659  22.051   4.052
 1428DOPC   PO416394  24.479  22.471   4.042
 1428DOPC   GL116395  24.299  22.721   4.422
 1428DOPC   GL216396  24.519  22.831   4.562
 1428DOPC   C1A16397  24.149  23.001   4.822
 1428DOPC   D2A16398  23.679  23.311   4.932
 1428DOPC   C3A16399  23.299  23.431   5.122
 1428DOPC   C4A16400  23.229  23.661   5.502
 1428DOPC   C1B16401  24.719  22.861   4.942
 1428DOPC   D2B16402  24.849  22.811   5.392
 1428DOPC   C3B16403  24.859  22.481   5.642
 1428DOPC   C4B16404  24.759  22.241   5.972
 1429DOPC   NC316405   8.719   2.824   7.962
 1429DOPC   PO416406   8.699   2.304   8.142
 1429DOPC   GL116407   8.589   2.314   7.692
 1429DOPC   GL216408   8.859   2.124   7.532
 1429DOPC   C1A16409   8.559   2.384   7.242
 1429DOPC   D2A16410   8.759   2.134   6.922
 1429DOPC   C3A16411   9.129   2.144   6.702
 1429DOPC   C4A16412   9.479   1.944   6.712
 1429DOPC   C1B16413   9.199   2.284   7.232
 1429DOPC   D2B16414   9.549   2.124   7.172
 1429DOPC   C3B16415   9.919   2.244   6.872
 1429DOPC   C4B16416  10.079   2.684   6.742
 1430DOPC   NC316417  20.419  14.354   3.552
 1430DOPC   PO416418  20.649  14.304   3.882
 1430DOPC   GL116419  20.739  14.304   4.222
 1430DOPC   GL216420  20.829  13.924   4.252
 1430DOPC   C1A16421  20.979  14.234   4.622
 1430DOPC   D2A16422  20.999  14.084   5.082
 1430DOPC   C3A16423  20.809  13.694   5.272
 1430DOPC   C4A16424  20.719  13.374   5.562
 1430DOPC   C1B16425  20.919  13.704   4.692
 1430DOPC   D2B16426  21.349  13.644   4.972
 1430DOPC   C3B16427  21.269  13.334   5.222
 1430DOPC   C4B16428  21.139  13.184   5.622
 1431DOPC   NC316429  19.619  21.174   3.552
 1431DOPC   PO416430  19.379  21.411   3.812
 1431DOPC   GL116431  19.039  21.411   4.062
 1431DOPC   GL216432  18.909  21.214   3.982
 1431DOPC   C1A16433  19.009  21.441   4.442
 1431DOPC   D2A16434  18.929  21.174   4.852
 1431DOPC   C3A16435  19.289  21.154   5.132
 1431DOPC   C4A16436  19.489  20.964   5.552
 1431DOPC   C1B16437  18.989  20.974   4.322
 1431DOPC   D2B16438  19.329  21.074   4.612
 1431DOPC   C3B16439  19.349  21.481   4.782
 1431DOPC   C4B16440  19.109  21.791   5.032
 1432DOPC   NC316441   0.579   1.454   3.492
 1432DOPC   PO416442   0.309   1.674   3.662
 1432DOPC   GL116443   0.159   1.754   4.052
 1432DOPC   GL216444  -0.119   1.664   4.282
 1432DOPC   C1A16445   0.239   1.994   4.372
 1432DOPC   D2A16446   0.209   2.044   4.732
 1432DOPC   C3A16447   0.169   1.904   5.102
 1432DOPC   C4A16448   0.339   1.934   5.482
 1432DOPC   C1B16449  -0.239   2.034   4.512
 1432DOPC   D2B16450  -0.159   2.374   4.672
 1432DOPC   C3B16451  -0.429   2.584   4.962
 1432DOPC   C4B16452  -0.389   2.984   4.922
 1433DOPC   NC316453  10.379  19.494   4.462
 1433DOPC   PO416454  10.419  19.324   4.822
 1433DOPC   GL116455  10.549  19.394   5.262
 1433DOPC   GL216456  10.789  19.234   5.382
 1433DOPC   C1A16457  10.479  19.444   5.702
 1433DOPC   D2A16458  10.419  19.304   6.152
 1433DOPC   C3A16459  10.389  19.614   6.472
 1433DOPC   C4A16460  10.579  19.954   6.692
 1433DOPC   C1B16461  10.759  18.834   5.442
 1433DOPC   D2B16462  10.519  18.564   5.602
 1433DOPC   C3B16463  10.209  18.254   5.562
 1433DOPC   C4B16464   9.999  17.894   5.522
 1434DOPC   NC316465  24.229  11.054   3.122
 1434DOPC   PO416466  24.449  11.114   3.492
 1434DOPC   GL116467  24.349  10.994   3.952
 1434DOPC   GL216468  24.639  10.844   4.002
 1434DOPC   C1A16469  24.209  10.994   4.442
 1434DOPC   D2A16470  24.289  10.884   4.902
 1434DOPC   C3A16471  24.199  11.114   5.202
 1434DOPC   C4A16472  24.309  11.044   5.582
 1434DOPC   C1B16473  24.779  10.744   4.392
 1434DOPC   D2B16474  24.819  10.694   4.892
 1434DOPC   C3B16475  24.869  10.324   5.042
 1434DOPC   C4B16476  24.879  10.204   5.442
 1435DOPC   NC316477  25.429  16.534   7.902
 1435DOPC   PO416478  25.409  16.154   7.772
 1435DOPC   GL116479  25.119  16.164   7.422
 1435DOPC   GL216480  24.869  16.344   7.282
 1435DOPC   C1A16481  25.199  16.074   6.932
 1435DOPC   D2A16482  25.299  16.054   6.502
 1435DOPC   C3A16483  25.539  16.294   6.332
 1435DOPC   C4A16484  25.559  16.154   5.832
 1435DOPC   C1B16485  24.669  16.004   7.042
 1435DOPC   D2B16486  24.439  15.724   6.912
 1435DOPC   C3B16487  24.189  15.674   6.552
 1435DOPC   C4B16488  23.819  15.684   6.322
 1436DOPC   NC316489  22.219  19.394   3.492
 1436DOPC   PO416490  22.029  19.554   3.822
 1436DOPC   GL116491  22.209  19.224   4.112
 1436DOPC   GL216492  22.289  19.384   4.412
 1436DOPC   C1A16493  22.029  18.944   4.432
 1436DOPC   D2A16494  22.109  18.634   4.772
 1436DOPC   C3A16495  21.989  18.204   4.892
 1436DOPC   C4A16496  21.559  18.124   4.902
 1436DOPC   C1B16497  22.319  19.574   4.812
 1436DOPC   D2B16498  22.449  19.534   5.172
 1436DOPC   C3B16499  22.539  19.134   5.322
 1436DOPC   C4B16500  22.399  19.004   5.832
 1437DOPC   NC316501  16.639   0.624   3.692
 1437DOPC   PO416502  16.369   0.384   3.872
 1437DOPC   GL116503  16.209   0.484   4.222
 1437DOPC   GL216504  15.909   0.584   4.342
 1437DOPC   C1A16505  16.449   0.504   4.552
 1437DOPC   D2A16506  16.569   0.434   4.972
 1437DOPC   C3A16507  16.359   0.594   5.402
 1437DOPC   C4A16508  16.389   1.034   5.402
 1437DOPC   C1B16509  15.829   0.644   4.762
 1437DOPC   D2B16510  16.079   0.844   5.042
 1437DOPC   C3B16511  15.979   0.824   5.632
 1437DOPC   C4B16512  16.209   0.914   5.992
 1438DOPC   NC316513  25.706  17.464   3.692
 1438DOPC   PO416514  25.589  17.004   3.802
 1438DOPC   GL116515  25.429  16.664   4.082
 1438DOPC   GL216516  25.129  16.734   4.322
 1438DOPC   C1A16517  25.519  16.434   4.422
 1438DOPC   D2A16518  25.399  16.304   4.872
 1438DOPC   C3A16519  25.089  16.554   5.212
 1438DOPC   C4A16520  24.819  16.694   5.532
 1438DOPC   C1B16521  25.209  16.754   4.722
 1438DOPC   D2B16522  25.499  16.794   5.062
 1438DOPC   C3B16523  25.946  16.744   5.212
 1438DOPC   C4B16524  26.276  16.884   4.932
 1439DOPC   NC316525  18.399   3.494   8.272
 1439DOPC   PO416526  18.499   3.494   7.802
 1439DOPC   GL116527  18.379   3.744   7.512
 1439DOPC   GL216528  18.469   3.564   7.132
 1439DOPC   C1A16529  18.059   3.874   7.182
 1439DOPC   D2A16530  17.739   3.854   6.862
 1439DOPC   C3A16531  17.479   3.594   6.622
 1439DOPC   C4A16532  17.019   3.494   6.572
 1439DOPC   C1B16533  18.349   3.734   6.772
 1439DOPC   D2B16534  18.499   3.934   6.362
 1439DOPC   C3B16535  18.319   3.864   5.912
 1439DOPC   C4B16536  17.909   4.024   5.652
 1440DOPC   NC316537   1.179   6.744   2.962
 1440DOPC   PO416538   1.189   6.304   3.062
 1440DOPC   GL116539   1.149   6.254   3.542
 1440DOPC   GL216540   1.329   6.154   3.782
 1440DOPC   C1A16541   0.859   6.194   3.992
 1440DOPC   D2A16542   0.779   6.234   4.422
 1440DOPC   C3A16543   1.059   6.434   4.602
 1440DOPC   C4A16544   1.319   6.724   4.682
 1440DOPC   C1B16545   1.379   6.344   4.222
 1440DOPC   D2B16546   1.569   6.214   4.592
 1440DOPC   C3B16547   1.879   5.804   4.612
 1440DOPC   C4B16548   2.159   5.654   4.272
 1441DOPC   NC316549   5.739  14.914   3.762
 1441DOPC   PO416550   5.859  15.204   4.072
 1441DOPC   GL116551   5.829  15.204   4.502
 1441DOPC   GL216552   6.029  15.414   4.642
 1441DOPC   C1A16553   5.579  14.974   4.902
 1441DOPC   D2A16554   5.639  14.924   5.402
 1441DOPC   C3A16555   5.399  14.604   5.722
 1441DOPC   C4A16556   5.489  14.274   5.972
 1441DOPC   C1B16557   5.739  15.544   4.892
 1441DOPC   D2B16558   5.929  15.874   5.212
 1441DOPC   C3B16559   5.909  15.784   5.672
 1441DOPC   C4B16560   5.659  15.814   6.122
 1442DOPC   NC316561   6.499   6.564   3.622
 1442DOPC   PO416562   6.349   6.234   3.892
 1442DOPC   GL116563   6.159   6.624   3.982
 1442DOPC   GL216564   5.929   6.444   4.002
 1442DOPC   C1A16565   5.999   6.974   4.122
 1442DOPC   D2A16566   5.679   7.334   4.122
 1442DOPC   C3A16567   5.309   7.494   4.362
 1442DOPC   C4A16568   5.039   7.494   4.622
 1442DOPC   C1B16569   6.009   6.594   4.472
 1442DOPC   D2B16570   5.879   6.664   4.802
 1442DOPC   C3B16571   5.539   6.724   4.982
 1442DOPC   C4B16572   5.069   6.524   4.972
 1443DOPC   NC316573  12.869   8.674   4.492
 1443DOPC   PO416574  12.749   8.124   4.572
 1443DOPC   GL116575  12.679   7.844   4.972
 1443DOPC   GL216576  12.879   7.664   5.162
 1443DOPC   C1A16577  12.749   8.074   5.432
 1443DOPC   D2A16578  12.599   7.904   5.722
 1443DOPC   C3A16579  12.929   7.834   6.092
 1443DOPC   C4A16580  13.129   8.054   6.342
 1443DOPC   C1B16581  13.049   7.714   5.552
 1443DOPC   D2B16582  13.199   7.454   5.912
 1443DOPC   C3B16583  12.979   7.134   6.162
 1443DOPC   C4B16584  12.649   6.844   6.302
 1444DOPC   NC316585  20.619   6.524   3.772
 1444DOPC   PO416586  20.149   6.464   3.872
 1444DOPC   GL116587  20.349   6.364   4.282
 1444DOPC   GL216588  20.529   6.594   4.342
 1444DOPC   C1A16589  20.589   5.974   4.492
 1444DOPC   D2A16590  20.839   5.954   4.792
 1444DOPC   C3A16591  20.749   6.064   5.092
 1444DOPC   C4A16592  20.619   6.364   5.442
 1444DOPC   C1B16593  20.499   6.364   4.762
 1444DOPC   D2B16594  20.169   6.234   5.042
 1444DOPC   C3B16595  20.239   6.034   5.492
 1444DOPC   C4B16596  20.659   5.934   5.832
 1445DOPC   NC316597  14.159  19.864   7.962
 1445DOPC   PO416598  13.819  19.614   7.922
 1445DOPC   GL116599  13.819  20.024   7.622
 1445DOPC   GL216600  13.699  20.344   7.752
 1445DOPC   C1A16601  14.009  20.014   7.232
 1445DOPC   D2A16602  14.169  20.264   7.032
 1445DOPC   C3A16603  14.119  20.634   6.952
 1445DOPC   C4A16604  13.839  20.734   6.492
 1445DOPC   C1B16605  13.369  20.684   7.712
 1445DOPC   D2B16606  13.099  20.984   7.532
 1445DOPC   C3B16607  12.929  20.924   7.072
 1445DOPC   C4B16608  12.839  20.814   6.612
 1446DOPC   NC316609   4.389  23.021   7.742
 1446DOPC   PO416610   4.239  22.601   7.752
 1446DOPC   GL116611   4.139  22.581   7.372
 1446DOPC   GL216612   4.249  22.931   7.262
 1446DOPC   C1A16613   4.239  22.511   6.982
 1446DOPC   D2A16614   4.149  22.761   6.582
 1446DOPC   C3A16615   4.399  23.051   6.572
 1446DOPC   C4A16616   4.529  23.171   6.932
 1446DOPC   C1B16617   4.649  22.751   7.132
 1446DOPC   D2B16618   4.789  22.661   6.792
 1446DOPC   C3B16619   4.529  22.481   6.492
 1446DOPC   C4B16620   4.229  22.231   6.522
 1447DOPC   NC316621  -0.469  17.054   3.952
 1447DOPC   PO416622  -0.399  17.464   3.932
 1447DOPC   GL116623  -0.139  17.514   4.202
 1447DOPC   GL216624   0.001  17.234   4.252
 1447DOPC   C1A16625   0.109  17.454   4.662
 1447DOPC   D2A16626   0.269  17.204   4.892
 1447DOPC   C3A16627   0.319  17.254   5.302
 1447DOPC   C4A16628   0.419  17.754   5.532
 1447DOPC   C1B16629   0.099  16.914   4.542
 1447DOPC   D2B16630   0.409  16.504   4.702
 1447DOPC   C3B16631   0.749  16.634   4.462
 1447DOPC   C4B16632   1.209  16.634   4.332
 1448DOPC   NC316633  24.059  15.934   7.812
 1448DOPC   PO416634  24.309  15.614   7.622
 1448DOPC   GL116635  23.999  15.644   7.282
 1448DOPC   GL216636  23.849  15.944   7.132
 1448DOPC   C1A16637  23.929  15.454   6.952
 1448DOPC   D2A16638  23.899  15.014   6.802
 1448DOPC   C3A16639  24.179  15.074   6.432
 1448DOPC   C4A16640  24.149  15.344   6.072
 1448DOPC   C1B16641  23.829  16.014   6.752
 1448DOPC   D2B16642  23.899  16.424   6.482
 1448DOPC   C3B16643  23.789  16.304   6.052
 1448DOPC   C4B16644  23.539  16.034   5.952
 1449DOPC   NC316645  21.649  25.171   7.892
 1449DOPC   PO416646  21.299  24.971   7.722
 1449DOPC   GL116647  21.389  25.001   7.332
 1449DOPC   GL216648  21.139  25.031   7.122
 1449DOPC   C1A16649  21.609  25.011   6.902
 1449DOPC   D2A16650  21.349  24.881   6.472
 1449DOPC   C3A16651  21.619  25.091   6.092
 1449DOPC   C4A16652  21.539  25.241   5.722
 1449DOPC   C1B16653  20.829  24.911   6.822
 1449DOPC   D2B16654  20.479  24.711   6.612
 1449DOPC   C3B16655  20.079  24.881   6.562
 1449DOPC   C4B16656  19.849  25.301   6.532
 1450DOPC   NC316657   8.679  12.314   8.772
 1450DOPC   PO416658   8.569  12.464   8.342
 1450DOPC   GL116659   8.869  12.254   8.092
 1450DOPC   GL216660   8.929  12.044   8.112
 1450DOPC   C1A16661   9.139  12.294   7.692
 1450DOPC   D2A16662   9.159  12.474   7.232
 1450DOPC   C3A16663   8.999  12.664   6.772
 1450DOPC   C4A16664   8.839  12.694   6.362
 1450DOPC   C1B16665   9.399  11.884   7.852
 1450DOPC   D2B16666   9.699  11.664   7.672
 1450DOPC   C3B16667   9.809  11.724   7.322
 1450DOPC   C4B16668   9.959  11.434   7.082
 1451DOPC   NC316669  24.699  10.304   2.982
 1451DOPC   PO416670  24.829   9.884   3.222
 1451DOPC   GL116671  24.639   9.984   3.672
 1451DOPC   GL216672  24.379  10.204   3.492
 1451DOPC   C1A16673  24.459   9.964   4.162
 1451DOPC   D2A16674  24.249   9.614   4.432
 1451DOPC   C3A16675  24.169   9.814   4.862
 1451DOPC   C4A16676  24.089   9.664   5.282
 1451DOPC   C1B16677  24.449  10.464   3.762
 1451DOPC   D2B16678  24.259  10.524   4.122
 1451DOPC   C3B16679  23.819  10.504   4.032
 1451DOPC   C4B16680  23.739  10.864   4.042
 1452DOPC   NC316681   3.609   3.494   3.652
 1452DOPC   PO416682   3.939   3.174   3.482
 1452DOPC   GL116683   3.899   3.054   3.882
 1452DOPC   GL216684   3.659   3.004   3.912
 1452DOPC   C1A16685   4.019   3.154   4.262
 1452DOPC   D2A16686   3.939   2.944   4.642
 1452DOPC   C3A16687   3.869   3.044   5.032
 1452DOPC   C4A16688   3.919   3.394   5.322
 1452DOPC   C1B16689   3.539   2.924   4.282
 1452DOPC   D2B16690   3.589   2.604   4.742
 1452DOPC   C3B16691   3.529   2.344   5.072
 1452DOPC   C4B16692   3.799   2.104   5.392
 1453DOPC   NC316693   5.589  13.774   3.272
 1453DOPC   PO416694   5.259  13.754   3.622
 1453DOPC   GL116695   5.079  13.884   3.982
 1453DOPC   GL216696   4.989  13.634   4.222
 1453DOPC   C1A16697   4.989  14.154   4.392
 1453DOPC   D2A16698   5.009  14.334   4.802
 1453DOPC   C3A16699   5.009  14.044   5.172
 1453DOPC   C4A16700   5.269  14.164   5.402
 1453DOPC   C1B16701   5.179  13.804   4.702
 1453DOPC   D2B16702   5.489  13.894   5.002
 1453DOPC   C3B16703   5.419  13.674   5.392
 1453DOPC   C4B16704   5.469  13.374   5.792
 1454DOPC   NC316705  21.369  23.681   3.592
 1454DOPC   PO416706  21.139  23.901   3.942
 1454DOPC   GL116707  20.999  23.671   4.292
 1454DOPC   GL216708  21.309  23.541   4.312
 1454DOPC   C1A16709  20.979  23.651   4.742
 1454DOPC   D2A16710  21.249  23.701   5.152
 1454DOPC   C3A16711  21.539  23.851   4.852
 1454DOPC   C4A16712  21.809  23.631   4.512
 1454DOPC   C1B16713  21.399  23.321   4.612
 1454DOPC   D2B16714  21.799  23.291   4.862
 1454DOPC   C3B16715  21.639  23.311   5.352
 1454DOPC   C4B16716  21.439  23.071   5.552
 1455DOPC   NC316717  15.819  21.711   7.752
 1455DOPC   PO416718  15.739  21.264   7.712
 1455DOPC   GL116719  15.559  21.471   7.352
 1455DOPC   GL216720  15.579  21.771   7.322
 1455DOPC   C1A16721  15.369  21.284   6.972
 1455DOPC   D2A16722  15.389  20.944   6.632
 1455DOPC   C3A16723  15.719  20.834   6.262
 1455DOPC   C4A16724  15.919  21.054   5.862
 1455DOPC   C1B16725  15.639  21.811   6.852
 1455DOPC   D2B16726  15.389  22.021   6.712
 1455DOPC   C3B16727  15.319  21.951   6.352
 1455DOPC   C4B16728  15.089  21.801   6.012
 1456DOPC   NC316729   8.489  15.714   4.382
 1456DOPC   PO416730   8.429  16.264   4.242
 1456DOPC   GL116731   8.279  16.024   4.682
 1456DOPC   GL216732   8.389  16.324   4.792
 1456DOPC   C1A16733   8.219  15.864   5.142
 1456DOPC   D2A16734   8.469  16.044   5.482
 1456DOPC   C3A16735   8.479  15.734   5.872
 1456DOPC   C4A16736   8.369  15.464   6.072
 1456DOPC   C1B16737   8.659  16.244   5.112
 1456DOPC   D2B16738   8.819  16.494   5.472
 1456DOPC   C3B16739   8.699  16.334   5.952
 1456DOPC   C4B16740   8.269  16.164   6.062
 1457DOPC   NC316741   1.589  13.284   7.892
 1457DOPC   PO416742   1.789  13.024   7.532
 1457DOPC   GL116743   1.669  13.164   7.142
 1457DOPC   GL216744   1.939  13.314   6.992
 1457DOPC   C1A16745   1.499  13.264   6.692
 1457DOPC   D2A16746   1.279  13.334   6.272
 1457DOPC   C3A16747   1.359  13.624   5.972
 1457DOPC   C4A16748   1.749  13.854   5.842
 1457DOPC   C1B16749   2.069  13.214   6.582
 1457DOPC   D2B16750   2.239  13.354   6.162
 1457DOPC   C3B16751   2.199  13.634   5.782
 1457DOPC   C4B16752   1.969  13.634   5.462
 1458DOPC   NC316753   6.569   8.764   3.342
 1458DOPC   PO416754   6.319   9.194   3.342
 1458DOPC   GL116755   6.269   8.964   3.722
 1458DOPC   GL216756   6.299   8.674   3.812
 1458DOPC   C1A16757   5.839   8.834   3.842
 1458DOPC   D2A16758   5.489   8.614   3.742
 1458DOPC   C3A16759   5.189   8.514   4.032
 1458DOPC   C4A16760   5.219   8.454   4.532
 1458DOPC   C1B16761   6.299   8.864   4.232
 1458DOPC   D2B16762   6.369   9.084   4.542
 1458DOPC   C3B16763   6.259   8.974   4.932
 1458DOPC   C4B16764   6.259   8.684   5.222
 1459DOPC   NC316765  14.899  18.494   4.582
 1459DOPC   PO416766  15.129  18.324   4.252
 1459DOPC   GL116767  15.329  18.154   4.662
 1459DOPC   GL216768  15.289  17.734   4.692
 1459DOPC   C1A16769  15.259  18.044   5.102
 1459DOPC   D2A16770  15.259  17.774   5.472
 1459DOPC   C3A16771  15.449  17.994   5.882
 1459DOPC   C4A16772  15.589  18.224   6.242
 1459DOPC   C1B16773  15.449  17.474   5.072
 1459DOPC   D2B16774  15.699  17.654   5.332
 1459DOPC   C3B16775  15.699  18.044   5.432
 1459DOPC   C4B16776  15.439  18.344   5.562
 1460DOPC   NC316777   2.299  22.501   3.742
 1460DOPC   PO416778   2.599  22.151   4.092
 1460DOPC   GL116779   2.659  21.881   4.452
 1460DOPC   GL216780   2.389  22.051   4.662
 1460DOPC   C1A16781   2.649  21.481   4.702
 1460DOPC   D2A16782   2.609  21.074   4.902
 1460DOPC   C3A16783   2.889  20.944   5.322
 1460DOPC   C4A16784   3.079  20.824   5.672
 1460DOPC   C1B16785   2.479  21.881   5.072
 1460DOPC   D2B16786   2.299  22.111   5.452
 1460DOPC   C3B16787   2.019  21.941   5.752
 1460DOPC   C4B16788   2.209  21.681   6.062
 1461DOPC   NC316789  18.659   0.314   7.662
 1461DOPC   PO416790  19.109   0.484   7.732
 1461DOPC   GL116791  19.199   0.624   7.312
 1461DOPC   GL216792  19.349   0.354   7.142
 1461DOPC   C1A16793  19.209   0.764   6.892
 1461DOPC   D2A16794  18.929   0.934   6.582
 1461DOPC   C3A16795  18.749   1.084   6.192
 1461DOPC   C4A16796  18.509   1.234   5.892
 1461DOPC   C1B16797  18.929   0.334   6.882
 1461DOPC   D2B16798  18.669   0.484   6.502
 1461DOPC   C3B16799  18.549   0.254   6.262
 1461DOPC   C4B16800  18.309   0.284   5.872
 1462DOPC   NC316801  11.989  20.264   4.622
 1462DOPC   PO416802  11.909  20.714   4.642
 1462DOPC   GL116803  11.799  20.744   5.102
 1462DOPC   GL216804  12.079  20.724   5.222
 1462DOPC   C1A16805  11.619  20.794   5.512
 1462DOPC   D2A16806  11.469  20.464   5.762
 1462DOPC   C3A16807  11.539  20.064   5.782
 1462DOPC   C4A16808  11.429  19.684   6.072
 1462DOPC   C1B16809  12.409  20.784   5.402
 1462DOPC   D2B16810  12.619  20.974   5.692
 1462DOPC   C3B16811  12.399  20.844   6.012
 1462DOPC   C4B16812  12.519  20.604   6.282
 1463DOPC   NC316813   8.369  23.531   7.482
 1463DOPC   PO416814   8.259  23.991   7.722
 1463DOPC   GL116815   7.959  24.141   7.342
 1463DOPC   GL216816   8.109  23.921   7.132
 1463DOPC   C1A16817   7.649  24.131   6.982
 1463DOPC   D2A16818   7.509  24.071   6.552
 1463DOPC   C3A16819   7.139  24.001   6.412
 1463DOPC   C4A16820   7.059  23.801   6.042
 1463DOPC   C1B16821   7.839  23.611   6.962
 1463DOPC   D2B16822   7.749  23.521   6.562
 1463DOPC   C3B16823   7.919  23.791   6.202
 1463DOPC   C4B16824   8.279  24.051   6.102
 1464DOPC   NC316825  15.389  17.414   3.942
 1464DOPC   PO416826  15.769  17.574   4.102
 1464DOPC   GL116827  15.709  17.544   4.592
 1464DOPC   GL216828  15.759  17.784   4.792
 1464DOPC   C1A16829  15.929  17.324   4.932
 1464DOPC   D2A16830  16.169  17.354   5.242
 1464DOPC   C3A16831  16.049  17.464   5.632
 1464DOPC   C4A16832  15.809  17.584   6.022
 1464DOPC   C1B16833  15.819  18.164   4.912
 1464DOPC   D2B16834  15.779  18.474   5.182
 1464DOPC   C3B16835  16.019  18.404   5.572
 1464DOPC   C4B16836  16.029  17.964   5.872
 1465DOPC   NC316837  16.609  22.551   3.232
 1465DOPC   PO416838  16.969  22.621   3.412
 1465DOPC   GL116839  16.999  22.411   3.842
 1465DOPC   GL216840  17.239  22.111   3.922
 1465DOPC   C1A16841  16.739  22.321   4.192
 1465DOPC   D2A16842  16.649  22.571   4.532
 1465DOPC   C3A16843  16.689  22.571   4.992
 1465DOPC   C4A16844  16.789  22.491   5.402
 1465DOPC   C1B16845  17.079  21.801   4.202
 1465DOPC   D2B16846  17.169  21.421   4.432
 1465DOPC   C3B16847  17.249  21.354   4.812
 1465DOPC   C4B16848  17.599  21.344   5.122
 1466DOPC   NC316849  21.569   6.684   7.982
 1466DOPC   PO416850  21.809   6.794   7.652
 1466DOPC   GL116851  21.919   6.694   7.152
 1466DOPC   GL216852  22.039   6.374   6.942
 1466DOPC   C1A16853  21.709   6.794   6.872
 1466DOPC   D2A16854  21.329   6.874   6.532
 1466DOPC   C3A16855  21.199   6.924   6.112
 1466DOPC   C4A16856  21.169   6.774   5.812
 1466DOPC   C1B16857  22.149   6.024   6.662
 1466DOPC   D2B16858  22.109   5.944   6.232
 1466DOPC   C3B16859  21.909   6.264   5.982
 1466DOPC   C4B16860  21.649   6.464   5.742
 1467DOPC   NC316861   2.319  25.241   3.002
 1467DOPC   PO416862   2.259  25.041   3.402
 1467DOPC   GL116863   2.139  25.121   3.832
 1467DOPC   GL216864   2.459  25.241   3.872
 1467DOPC   C1A16865   2.039  25.371   4.222
 1467DOPC   D2A16866   2.199  25.281   4.602
 1467DOPC   C3A16867   1.999  25.271   4.922
 1467DOPC   C4A16868   1.639  25.391   4.982
 1467DOPC   C1B16869   2.529  25.221   4.272
 1467DOPC   D2B16870   2.609  24.921   4.642
 1467DOPC   C3B16871   2.779  24.861   5.062
 1467DOPC   C4B16872   3.039  25.071   5.362
 1468DOPC   NC316873   0.041   0.554   3.892
 1468DOPC   PO416874   0.499   0.484   3.772
 1468DOPC   GL116875   0.779   0.424   4.112
 1468DOPC   GL216876   1.109   0.244   4.262
 1468DOPC   C1A16877   0.849   0.624   4.522
 1468DOPC   D2A16878   0.829   0.504   5.002
 1468DOPC   C3A16879   0.399   0.304   5.092
 1468DOPC   C4A16880   0.099   0.374   5.382
 1468DOPC   C1B16881   1.399   0.314   4.702
 1468DOPC   D2B16882   1.699   0.294   5.122
 1468DOPC   C3B16883   1.509  -0.046   5.462
 1468DOPC   C4B16884   1.379   0.044   5.912
 1469DOPC   NC316885   8.089  23.491   4.572
 1469DOPC   PO416886   8.569  23.431   4.472
 1469DOPC   GL116887   8.459  23.501   4.902
 1469DOPC   GL216888   8.769  23.391   5.022
 1469DOPC   C1A16889   8.339  23.481   5.372
 1469DOPC   D2A16890   8.239  23.601   5.842
 1469DOPC   C3A16891   8.389  23.531   6.342
 1469DOPC   C4A16892   8.289  23.461   6.812
 1469DOPC   C1B16893   9.039  23.191   5.112
 1469DOPC   D2B16894   9.449  23.251   5.242
 1469DOPC   C3B16895   9.489  23.151   5.742
 1469DOPC   C4B16896   9.309  23.241   6.262
 1470DOPC   NC316897  23.369  17.614   7.502
 1470DOPC   PO416898  23.109  17.314   7.682
 1470DOPC   GL116899  23.219  17.034   7.382
 1470DOPC   GL216900  23.339  17.204   7.112
 1470DOPC   C1A16901  23.189  16.724   7.092
 1470DOPC   D2A16902  23.339  16.784   6.632
 1470DOPC   C3A16903  23.579  16.794   6.302
 1470DOPC   C4A16904  23.529  16.934   5.882
 1470DOPC   C1B16905  23.129  17.254   6.742
 1470DOPC   D2B16906  22.809  17.464   6.562
 1470DOPC   C3B16907  22.809  17.584   6.122
 1470DOPC   C4B16908  22.959  17.674   5.672
 1471DOPC   NC316909  10.969  16.014   8.712
 1471DOPC   PO416910  10.829  15.584   8.742
 1471DOPC   GL116911  10.769  15.584   8.352
 1471DOPC   GL216912  10.419  15.514   8.402
 1471DOPC   C1A16913  10.779  15.424   7.862
 1471DOPC   D2A16914  10.529  15.224   7.632
 1471DOPC   C3A16915  10.419  14.834   7.592
 1471DOPC   C4A16916  10.189  14.484   7.372
 1471DOPC   C1B16917  10.349  15.704   7.932
 1471DOPC   D2B16918  10.179  15.864   7.592
 1471DOPC   C3B16919  10.189  15.554   7.192
 1471DOPC   C4B16920   9.769  15.634   7.022
 1472DOPC   NC316921   4.769  20.534   7.772
 1472DOPC   PO416922   4.749  20.924   7.922
 1472DOPC   GL116923   5.079  20.884   7.552
 1472DOPC   GL216924   5.319  21.024   7.572
 1472DOPC   C1A16925   4.999  20.904   7.142
 1472DOPC   D2A16926   4.759  20.824   6.722
 1472DOPC   C3A16927   4.469  21.114   6.572
 1472DOPC   C4A16928   4.269  21.391   6.302
 1472DOPC   C1B16929   5.509  21.074   7.262
 1472DOPC   D2B16930   5.839  20.924   7.032
 1472DOPC   C3B16931   6.039  20.564   6.742
 1472DOPC   C4B16932   6.299  20.284   6.622
 1473DOPC   NC316933  22.229   8.604   3.072
 1473DOPC   PO416934  22.289   8.254   3.382
 1473DOPC   GL116935  22.469   8.274   3.722
 1473DOPC   GL216936  22.369   8.204   3.952
 1473DOPC   C1A16937  22.779   8.564   3.952
 1473DOPC   D2A16938  22.879   8.704   4.442
 1473DOPC   C3A16939  23.329   8.694   4.652
 1473DOPC   C4A16940  23.559   8.964   5.022
 1473DOPC   C1B16941  22.379   8.464   4.282
 1473DOPC   D2B16942  22.369   8.754   4.672
 1473DOPC   C3B16943  22.649   9.114   4.802
 1473DOPC   C4B16944  22.799   9.524   4.932
 1474DOPC   NC316945  19.439   0.914   7.692
 1474DOPC   PO416946  19.729   1.254   7.782
 1474DOPC   GL116947  19.709   1.464   7.372
 1474DOPC   GL216948  20.009   1.624   7.182
 1474DOPC   C1A16949  19.369   1.514   7.162
 1474DOPC   D2A16950  19.109   1.344   6.872
 1474DOPC   C3A16951  18.849   1.684   6.802
 1474DOPC   C4A16952  18.529   1.814   7.082
 1474DOPC   C1B16953  19.849   1.754   6.922
 1474DOPC   D2B16954  19.839   1.974   6.562
 1474DOPC   C3B16955  19.779   1.794   6.092
 1474DOPC   C4B16956  19.699   2.014   5.752
 1475DOPC   NC316957   8.099  21.621   4.562
 1475DOPC   PO416958   7.699  21.284   4.632
 1475DOPC   GL116959   7.789  21.294   5.092
 1475DOPC   GL216960   7.939  21.084   5.482
 1475DOPC   C1A16961   7.649  21.491   5.462
 1475DOPC   D2A16962   7.629  21.811   5.702
 1475DOPC   C3A16963   7.249  21.971   5.942
 1475DOPC   C4A16964   7.029  21.941   6.302
 1475DOPC   C1B16965   7.639  20.834   5.732
 1475DOPC   D2B16966   7.749  20.664   6.152
 1475DOPC   C3B16967   8.169  20.734   6.412
 1475DOPC   C4B16968   8.269  20.784   6.802
 1476DOPC   NC316969  16.989   1.934   3.512
 1476DOPC   PO416970  17.249   1.954   3.982
 1476DOPC   GL116971  17.489   2.134   4.362
 1476DOPC   GL216972  17.169   2.084   4.632
 1476DOPC   C1A16973  17.529   2.404   4.752
 1476DOPC   D2A16974  17.399   2.504   5.202
 1476DOPC   C3A16975  17.539   2.664   5.602
 1476DOPC   C4A16976  17.279   2.564   6.052
 1476DOPC   C1B16977  17.129   2.114   5.052
 1476DOPC   D2B16978  16.969   2.294   5.372
 1476DOPC   C3B16979  16.979   2.534   5.632
 1476DOPC   C4B16980  16.689   2.664   5.962
 1477DOPC   NC316981  21.619  17.614   7.552
 1477DOPC   PO416982  21.899  17.214   7.422
 1477DOPC   GL116983  22.079  16.954   7.122
 1477DOPC   GL216984  22.239  17.104   6.832
 1477DOPC   C1A16985  22.099  16.664   6.902
 1477DOPC   D2A16986  22.199  16.304   6.622
 1477DOPC   C3A16987  21.919  16.114   6.352
 1477DOPC   C4A16988  21.949  15.994   5.932
 1477DOPC   C1B16989  22.279  17.494   6.582
 1477DOPC   D2B16990  22.399  17.814   6.372
 1477DOPC   C3B16991  22.349  17.904   5.912
 1477DOPC   C4B16992  22.699  18.184   5.682
 1478DOPC   NC316993  24.979  25.321   8.022
 1478DOPC   PO416994  24.569  25.081   7.872
 1478DOPC   GL116995  24.529  25.001   7.402
 1478DOPC   GL216996  24.749  25.231   7.302
 1478DOPC   C1A16997  24.569  24.871   6.902
 1478DOPC   D2A16998  24.659  24.981   6.532
 1478DOPC   C3A16999  25.039  24.921   6.172
 1478DOPC   C4A17000  24.899  24.781   5.742
 1478DOPC   C1B17001  24.869  25.351   6.872
 1478DOPC   D2B17002  25.249  25.721   6.782
 1478DOPC   C3B17003  25.009  25.991   6.762
 1478DOPC   C4B17004  24.609  26.251   6.992
 1479DOPC   NC317005  14.469  11.534   4.872
 1479DOPC   PO417006  14.819  11.824   4.872
 1479DOPC   GL117007  14.929  12.164   5.202
 1479DOPC   GL217008  15.329  12.094   5.312
 1479DOPC   C1A17009  15.019  12.344   5.632
 1479DOPC   D2A17010  15.019  12.234   6.062
 1479DOPC   C3A17011  15.149  11.904   6.352
 1479DOPC   C4A17012  15.019  11.514   6.672
 1479DOPC   C1B17013  15.399  12.004   5.762
 1479DOPC   D2B17014  15.469  12.254   6.182
 1479DOPC   C3B17015  15.239  12.634   6.222
 1479DOPC   C4B17016  15.209  13.084   6.312
 1480DOPC   NC317017   8.369   5.824   3.822
 1480DOPC   PO417018   8.239   5.394   3.742
 1480DOPC   GL117019   8.209   5.334   4.142
 1480DOPC   GL217020   8.299   5.614   4.252
 1480DOPC   C1A17021   8.219   5.154   4.612
 1480DOPC   D2A17022   8.329   5.314   4.992
 1480DOPC   C3A17023   8.109   5.594   5.272
 1480DOPC   C4A17024   7.859   5.764   5.582
 1480DOPC   C1B17025   8.479   5.604   4.632
 1480DOPC   D2B17026   8.769   5.544   5.032
 1480DOPC   C3B17027   8.589   5.324   5.432
 1480DOPC   C4B17028   8.309   5.364   5.692
 1481DOPC   NC317029   0.939  17.294   7.112
 1481DOPC   PO417030   0.659  17.634   7.152
 1481DOPC   GL117031   0.429  17.564   6.842
 1481DOPC   GL217032   0.649  17.254   6.712
 1481DOPC   C1A17033   0.149  17.364   6.532
 1481DOPC   D2A17034   0.219  17.094   6.222
 1481DOPC   C3A17035   0.169  16.634   6.012
 1481DOPC   C4A17036   0.389  16.364   5.702
 1481DOPC   C1B17037   0.279  16.954   6.792
 1481DOPC   D2B17038   0.269  16.614   6.492
 1481DOPC   C3B17039   0.649  16.524   6.202
 1481DOPC   C4B17040   0.859  16.454   5.892
 1482DOPC   NC317041   8.409   0.174   3.972
 1482DOPC   PO417042   8.879   0.134   3.992
 1482DOPC   GL117043   8.879   0.114   4.452
 1482DOPC   GL217044   8.559  -0.036   4.412
 1482DOPC   C1A17045   8.859   0.424   4.712
 1482DOPC   D2A17046   8.739   0.834   4.842
 1482DOPC   C3A17047   9.039   0.974   5.202
 1482DOPC   C4A17048   9.139   0.914   5.702
 1482DOPC   C1B17049   8.439   0.064   4.882
 1482DOPC   D2B17050   8.479   0.214   5.232
 1482DOPC   C3B17051   8.119   0.314   5.592
 1482DOPC   C4B17052   7.819   0.064   5.822
 1483DOPC   NC317053  13.589   7.854   8.342
 1483DOPC   PO417054  13.179   7.704   8.362
 1483DOPC   GL117055  13.319   7.644   7.972
 1483DOPC   GL217056  13.459   7.424   7.822
 1483DOPC   C1A17057  13.149   7.794   7.632
 1483DOPC   D2A17058  12.899   8.074   7.582
 1483DOPC   C3A17059  12.759   8.164   7.182
 1483DOPC   C4A17060  12.609   8.174   6.752
 1483DOPC   C1B17061  13.859   7.134   7.632
 1483DOPC   D2B17062  14.059   6.784   7.732
 1483DOPC   C3B17063  14.169   6.634   7.382
 1483DOPC   C4B17064  14.439   6.554   7.052
 1484DOPC   NC317065  11.849  23.171   4.142
 1484DOPC   PO417066  11.709  23.461   4.502
 1484DOPC   GL117067  11.679  23.571   4.932
 1484DOPC   GL217068  11.919  23.481   5.202
 1484DOPC   C1A17069  11.499  23.691   5.392
 1484DOPC   D2A17070  11.149  23.781   5.712
 1484DOPC   C3A17071  11.259  23.501   6.072
 1484DOPC   C4A17072  11.119  23.161   6.292
 1484DOPC   C1B17073  11.859  23.221   5.492
 1484DOPC   D2B17074  11.899  23.041   5.872
 1484DOPC   C3B17075  12.109  23.451   6.112
 1484DOPC   C4B17076  12.159  23.761   6.512
 1485DOPC   NC317077  15.209  10.104   4.392
 1485DOPC   PO417078  14.749  10.054   4.472
 1485DOPC   GL117079  14.899  10.094   4.942
 1485DOPC   GL217080  15.139  10.024   4.982
 1485DOPC   C1A17081  14.879  10.384   5.352
 1485DOPC   D2A17082  15.249  10.494   5.552
 1485DOPC   C3A17083  15.719  10.384   5.602
 1485DOPC   C4A17084  16.039  10.144   5.852
 1485DOPC   C1B17085  15.499  10.354   5.052
 1485DOPC   D2B17086  15.629  10.654   5.162
 1485DOPC   C3B17087  15.739  10.844   5.482
 1485DOPC   C4B17088  15.989  11.144   5.672
 1486DOPC   NC317089   9.619  19.894   8.562
 1486DOPC   PO417090   9.499  20.374   8.412
 1486DOPC   GL117091   9.399  20.044   8.102
 1486DOPC   GL217092   9.049  19.994   8.062
 1486DOPC   C1A17093   9.459  19.704   7.732
 1486DOPC   D2A17094   9.369  19.274   7.722
 1486DOPC   C3A17095   9.729  19.064   7.732
 1486DOPC   C4A17096  10.129  19.014   7.802
 1486DOPC   C1B17097   8.929  19.794   7.582
 1486DOPC   D2B17098   9.199  19.584   7.282
 1486DOPC   C3B17099   9.429  19.794   6.892
 1486DOPC   C4B17100   9.549  20.044   6.602
 1487DOPC   NC317101  23.839   0.554   7.532
 1487DOPC   PO417102  24.199   0.744   7.702
 1487DOPC   GL117103  24.179   0.944   7.222
 1487DOPC   GL217104  23.859   0.784   7.072
 1487DOPC   C1A17105  24.189   1.054   6.792
 1487DOPC   D2A17106  24.319   1.274   6.442
 1487DOPC   C3A17107  24.319   1.574   6.152
 1487DOPC   C4A17108  24.019   1.844   5.832
 1487DOPC   C1B17109  23.639   0.924   6.762
 1487DOPC   D2B17110  23.489   1.094   6.352
 1487DOPC   C3B17111  23.709   0.914   5.922
 1487DOPC   C4B17112  23.799   0.734   5.562
 1488DOPC   NC317113  24.169  14.054   7.642
 1488DOPC   PO417114  24.449  13.574   7.532
 1488DOPC   GL117115  24.459  13.514   7.132
 1488DOPC   GL217116  24.699  13.464   7.132
 1488DOPC   C1A17117  24.249  13.654   6.752
 1488DOPC   D2A17118  24.199  13.634   6.252
 1488DOPC   C3A17119  24.009  13.354   6.142
 1488DOPC   C4A17120  24.079  13.354   5.652
 1488DOPC   C1B17121  24.929  13.224   6.882
 1488DOPC   D2B17122  24.949  12.774   6.632
 1488DOPC   C3B17123  24.759  12.714   6.232
 1488DOPC   C4B17124  24.629  12.704   5.822
 1489DOPC   NC317125  22.349  24.171   7.762
 1489DOPC   PO417126  22.499  24.591   7.602
 1489DOPC   GL117127  22.669  24.561   7.172
 1489DOPC   GL217128  22.519  24.811   6.872
 1489DOPC   C1A17129  22.799  24.181   6.952
 1489DOPC   D2A17130  22.879  23.891   6.662
 1489DOPC   C3A17131  23.009  23.531   6.722
 1489DOPC   C4A17132  22.829  23.241   6.502
 1489DOPC   C1B17133  22.709  24.601   6.532
 1489DOPC   D2B17134  22.559  24.201   6.362
 1489DOPC   C3B17135  22.489  23.971   6.092
 1489DOPC   C4B17136  22.129  23.631   6.122
 1490DOPC   NC317137   4.579   1.474   3.942
 1490DOPC   PO417138   4.839   1.084   3.882
 1490DOPC   GL117139   4.679   1.134   4.292
 1490DOPC   GL217140   4.349   0.994   4.482
 1490DOPC   C1A17141   4.689   1.124   4.832
 1490DOPC   D2A17142   4.819   0.734   5.042
 1490DOPC   C3A17143   4.639   0.434   5.352
 1490DOPC   C4A17144   4.569   0.334   5.702
 1490DOPC   C1B17145   4.239   0.914   4.872
 1490DOPC   D2B17146   4.319   0.794   5.232
 1490DOPC   C3B17147   4.369   0.834   5.712
 1490DOPC   C4B17148   4.239   1.214   5.992
 1491DOPC   NC317149  11.479   8.244   4.672
 1491DOPC   PO417150  11.429   8.514   4.302
 1491DOPC   GL117151  11.169   8.604   4.742
 1491DOPC   GL217152  10.869   8.434   4.692
 1491DOPC   C1A17153  10.969   8.734   5.132
 1491DOPC   D2A17154  11.209   8.604   5.562
 1491DOPC   C3A17155  11.099   8.094   5.762
 1491DOPC   C4A17156  10.759   7.744   5.852
 1491DOPC   C1B17157  10.489   8.104   4.822
 1491DOPC   D2B17158  10.349   7.934   5.342
 1491DOPC   C3B17159  10.599   8.224   5.652
 1491DOPC   C4B17160  10.759   8.344   5.972
 1492DOPC   NC317161  18.669  23.961   3.672
 1492DOPC   PO417162  18.949  24.191   3.872
 1492DOPC   GL117163  19.119  24.291   4.272
 1492DOPC   GL217164  19.429  24.501   4.282
 1492DOPC   C1A17165  18.909  24.441   4.602
 1492DOPC   D2A17166  18.589  24.331   4.852
 1492DOPC   C3A17167  18.679  24.371   5.232
 1492DOPC   C4A17168  18.569  24.421   5.612
 1492DOPC   C1B17169  19.409  24.371   4.662
 1492DOPC   D2B17170  19.239  24.361   4.982
 1492DOPC   C3B17171  19.129  23.981   5.112
 1492DOPC   C4B17172  18.899  23.581   5.322
 1493DOPC   NC317173  10.749  24.441   4.202
 1493DOPC   PO417174  10.889  24.891   4.082
 1493DOPC   GL117175  10.969  25.071   4.532
 1493DOPC   GL217176  11.219  25.381   4.482
 1493DOPC   C1A17177  11.049  25.141   4.952
 1493DOPC   D2A17178  10.959  25.041   5.342
 1493DOPC   C3A17179  11.229  25.211   5.702
 1493DOPC   C4A17180  11.509  24.941   5.832
 1493DOPC   C1B17181  11.459  25.561   4.802
 1493DOPC   D2B17182  11.429  25.481   5.262
 1493DOPC   C3B17183  11.619  25.721   5.542
 1493DOPC   C4B17184  11.749  26.101   5.532
 1494DOPC   NC317185   9.229   8.434   3.662
 1494DOPC   PO417186   9.229   8.674   4.032
 1494DOPC   GL117187   8.999   8.964   4.412
 1494DOPC   GL217188   8.689   8.914   4.312
 1494DOPC   C1A17189   9.039   9.384   4.662
 1494DOPC   D2A17190   9.269   9.764   4.772
 1494DOPC   C3A17191   9.009  10.154   4.892
 1494DOPC   C4A17192   8.939  10.484   4.762
 1494DOPC   C1B17193   8.649   8.734   4.802
 1494DOPC   D2B17194   8.329   8.474   5.122
 1494DOPC   C3B17195   8.379   8.664   5.582
 1494DOPC   C4B17196   8.129   8.654   5.882
 1495DOPC   NC317197   9.479  18.624   4.462
 1495DOPC   PO417198   9.209  18.254   4.392
 1495DOPC   GL117199   9.099  17.874   4.562
 1495DOPC   GL217200   9.229  17.624   4.722
 1495DOPC   C1A17201   8.919  17.854   4.962
 1495DOPC   D2A17202   8.749  17.824   5.382
 1495DOPC   C3A17203   8.659  18.004   5.752
 1495DOPC   C4A17204   8.209  18.234   5.872
 1495DOPC   C1B17205   9.389  17.564   5.202
 1495DOPC   D2B17206   9.459  17.784   5.542
 1495DOPC   C3B17207   9.249  17.984   5.812
 1495DOPC   C4B17208   9.379  18.164   6.112
 1496DOPC   NC317209   5.369   7.124   7.062
 1496DOPC   PO417210   4.909   7.224   6.892
 1496DOPC   GL117211   4.989   7.344   6.422
 1496DOPC   GL217212   4.629   7.414   6.512
 1496DOPC   C1A17213   5.179   7.304   6.052
 1496DOPC   D2A17214   5.219   6.994   5.692
 1496DOPC   C3A17215   5.129   6.944   5.222
 1496DOPC   C4A17216   5.189   7.034   4.782
 1496DOPC   C1B17217   4.769   7.584   6.022
 1496DOPC   D2B17218   4.829   7.604   5.642
 1496DOPC   C3B17219   5.109   7.464   5.342
 1496DOPC   C4B17220   5.449   7.444   5.102
 1497DOPC   NC317221   6.649   9.264   3.732
 1497DOPC   PO417222   6.779   8.844   3.752
 1497DOPC   GL117223   6.799   8.624   4.142
 1497DOPC   GL217224   6.659   8.374   4.112
 1497DOPC   C1A17225   6.539   8.564   4.532
 1497DOPC   D2A17226   6.759   8.454   4.972
 1497DOPC   C3A17227   6.559   8.244   5.272
 1497DOPC   C4A17228   6.389   7.974   5.622
 1497DOPC   C1B17229   6.749   8.024   4.552
 1497DOPC   D2B17230   6.389   8.114   4.842
 1497DOPC   C3B17231   6.079   8.014   4.732
 1497DOPC   C4B17232   5.679   7.784   4.582
 1498DOPC   NC317233  11.489   3.584   7.872
 1498DOPC   PO417234  11.619   3.164   7.972
 1498DOPC   GL117235  11.799   3.234   7.552
 1498DOPC   GL217236  11.749   2.994   7.452
 1498DOPC   C1A17237  11.689   3.364   7.152
 1498DOPC   D2A17238  11.929   3.524   6.702
 1498DOPC   C3A17239  12.329   3.754   6.562
 1498DOPC   C4A17240  12.669   3.994   6.332
 1498DOPC   C1B17241  11.859   2.954   7.012
 1498DOPC   D2B17242  11.899   2.994   6.522
 1498DOPC   C3B17243  12.239   2.704   6.292
 1498DOPC   C4B17244  12.549   2.544   6.002
 1499DOPC   NC317245  11.679  23.081   4.872
 1499DOPC   PO417246  12.049  23.091   4.582
 1499DOPC   GL117247  12.209  23.441   4.822
 1499DOPC   GL217248  12.669  23.491   4.682
 1499DOPC   C1A17249  12.309  23.761   5.012
 1499DOPC   D2A17250  12.369  23.741   5.482
 1499DOPC   C3A17251  12.019  23.681   5.632
 1499DOPC   C4A17252  11.689  23.521   5.832
 1499DOPC   C1B17253  12.739  23.501   5.112
 1499DOPC   D2B17254  12.829  23.471   5.522
 1499DOPC   C3B17255  12.719  23.751   5.842
 1499DOPC   C4B17256  12.989  24.171   5.992
 1500DOPC   NC317257  19.759  12.114   8.282
 1500DOPC   PO417258  19.889  12.044   7.902
 1500DOPC   GL117259  20.069  11.894   7.472
 1500DOPC   GL217260  20.199  12.154   7.292
 1500DOPC   C1A17261  19.869  11.584   7.242
 1500DOPC   D2A17262  19.689  11.134   7.132
 1500DOPC   C3A17263  19.569  10.664   7.302
 1500DOPC   C4A17264  19.169  10.584   7.182
 1500DOPC   C1B17265  20.069  11.914   6.942
 1500DOPC   D2B17266  20.029  11.754   6.412
 1500DOPC   C3B17267  19.789  11.894   6.032
 1500DOPC   C4B17268  19.399  11.854   5.832
 1501DOPC   NC317269  12.019   5.544   8.342
 1501DOPC   PO417270  11.739   5.824   8.202
 1501DOPC   GL117271  11.939   5.994   7.782
 1501DOPC   GL217272  11.829   6.284   7.672
 1501DOPC   C1A17273  11.859   5.834   7.262
 1501DOPC   D2A17274  11.699   5.694   6.792
 1501DOPC   C3A17275  12.059   5.774   6.542
 1501DOPC   C4A17276  12.339   5.704   6.222
 1501DOPC   C1B17277  11.899   6.334   7.202
 1501DOPC   D2B17278  11.979   6.224   6.772
 1501DOPC   C3B17279  12.179   6.664   6.562
 1501DOPC   C4B17280  12.329   7.124   6.732
 1502DOPC   NC317281  21.119  16.624   7.482
 1502DOPC   PO417282  20.809  16.894   7.422
 1502DOPC   GL117283  21.009  16.984   7.142
 1502DOPC   GL217284  21.039  16.704   6.942
 1502DOPC   C1A17285  21.089  17.134   6.662
 1502DOPC   D2A17286  21.349  17.034   6.332
 1502DOPC   C3A17287  21.659  17.304   6.162
 1502DOPC   C4A17288  21.839  17.554   6.342
 1502DOPC   C1B17289  21.199  16.304   6.732
 1502DOPC   D2B17290  20.969  16.014   6.492
 1502DOPC   C3B17291  20.859  16.154   6.162
 1502DOPC   C4B17292  21.009  16.314   5.812
 1503DOPC   NC317293  15.039  18.604   8.382
 1503DOPC   PO417294  15.169  18.994   8.222
 1503DOPC   GL117295  15.019  18.854   7.862
 1503DOPC   GL217296  14.729  19.014   7.772
 1503DOPC   C1A17297  15.089  18.864   7.442
 1503DOPC   D2A17298  15.049  18.934   7.062
 1503DOPC   C3A17299  15.369  19.044   6.852
 1503DOPC   C4A17300  15.359  19.184   6.392
 1503DOPC   C1B17301  14.629  19.214   7.352
 1503DOPC   D2B17302  14.339  19.444   7.092
 1503DOPC   C3B17303  14.189  19.234   6.812
 1503DOPC   C4B17304  14.139  18.754   6.732
 1504DOPC   NC317305   1.869   9.284   3.192
 1504DOPC   PO417306   1.429   9.404   3.352
 1504DOPC   GL117307   1.089   9.484   3.602
 1504DOPC   GL217308   1.289   9.754   3.772
 1504DOPC   C1A17309   1.099   9.354   4.072
 1504DOPC   D2A17310   1.119   9.474   4.472
 1504DOPC   C3A17311   1.349   9.654   4.862
 1504DOPC   C4A17312   1.559   9.954   5.152
 1504DOPC   C1B17313   1.109   9.914   4.112
 1504DOPC   D2B17314   1.149  10.014   4.472
 1504DOPC   C3B17315   0.819   9.844   4.602
 1504DOPC   C4B17316   0.379   9.904   4.632
 1505DOPC   NC317317  18.439  22.561   3.802
 1505DOPC   PO417318  18.029  22.321   3.702
 1505DOPC   GL117319  17.739  22.301   4.042
 1505DOPC   GL217320  17.839  22.481   4.172
 1505DOPC   C1A17321  17.499  22.041   4.382
 1505DOPC   D2A17322  17.199  21.841   4.742
 1505DOPC   C3A17323  17.249  21.841   5.202
 1505DOPC   C4A17324  17.329  21.791   5.692
 1505DOPC   C1B17325  17.739  22.741   4.572
 1505DOPC   D2B17326  17.909  22.591   4.962
 1505DOPC   C3B17327  17.819  22.851   5.362
 1505DOPC   C4B17328  17.729  23.161   5.732
 1506DOPC   NC317329   9.129   7.114   7.702
 1506DOPC   PO417330   9.519   7.264   7.582
 1506DOPC   GL117331   9.229   7.374   7.212
 1506DOPC   GL217332   8.899   7.194   7.262
 1506DOPC   C1A17333   9.299   7.774   6.972
 1506DOPC   D2A17334   9.219   8.144   6.672
 1506DOPC   C3A17335   8.919   8.124   6.522
 1506DOPC   C4A17336   8.569   8.014   6.242
 1506DOPC   C1B17337   9.049   7.244   6.782
 1506DOPC   D2B17338   9.329   7.064   6.582
 1506DOPC   C3B17339   9.209   6.864   6.282
 1506DOPC   C4B17340   9.239   6.754   5.772
 1507DOPC   NC317341  17.709   0.484   7.592
 1507DOPC   PO417342  17.639   0.144   7.662
 1507DOPC   GL117343  17.769  -0.136   7.332
 1507DOPC   GL217344  17.469  -0.316   7.332
 1507DOPC   C1A17345  18.099  -0.026   7.002
 1507DOPC   D2A17346  18.449   0.044   6.682
 1507DOPC   C3A17347  18.819  -0.086   6.552
 1507DOPC   C4A17348  19.149  -0.226   6.202
 1507DOPC   C1B17349  17.489   0.084   6.992
 1507DOPC   D2B17350  17.529  -0.006   6.552
 1507DOPC   C3B17351  17.179   0.224   6.352
 1507DOPC   C4B17352  17.089   0.434   5.972
 1508DOPC   NC317353   8.839  19.014   3.992
 1508DOPC   PO417354   9.019  18.704   4.182
 1508DOPC   GL117355   8.989  18.634   4.682
 1508DOPC   GL217356   9.329  18.544   4.942
 1508DOPC   C1A17357   8.939  18.694   5.152
 1508DOPC   D2A17358   8.629  18.954   5.452
 1508DOPC   C3A17359   8.579  18.774   5.892
 1508DOPC   C4A17360   8.249  18.724   6.132
 1508DOPC   C1B17361   9.269  18.304   5.372
 1508DOPC   D2B17362   9.009  18.424   5.672
 1508DOPC   C3B17363   8.799  18.344   6.022
 1508DOPC   C4B17364   8.509  18.214   6.302
 1509DOPC   NC317365   5.979  22.071   3.662
 1509DOPC   PO417366   6.119  22.061   4.072
 1509DOPC   GL117367   6.249  22.171   4.572
 1509DOPC   GL217368   5.959  22.171   4.572
 1509DOPC   C1A17369   6.539  21.971   4.842
 1509DOPC   D2A17370   6.469  21.551   4.982
 1509DOPC   C3A17371   6.249  21.204   5.182
 1509DOPC   C4A17372   5.989  20.844   5.212
 1509DOPC   C1B17373   6.089  21.861   4.972
 1509DOPC   D2B17374   6.189  21.781   5.332
 1509DOPC   C3B17375   6.479  21.851   5.742
 1509DOPC   C4B17376   6.559  21.601   6.092
 1510DOPC   NC317377  16.569  19.214   3.592
 1510DOPC   PO417378  16.929  19.174   3.492
 1510DOPC   GL117379  16.979  19.124   3.982
 1510DOPC   GL217380  16.809  19.004   4.292
 1510DOPC   C1A17381  17.219  19.234   4.432
 1510DOPC   D2A17382  17.629  19.524   4.402
 1510DOPC   C3A17383  17.569  19.834   4.722
 1510DOPC   C4A17384  17.309  20.224   4.682
 1510DOPC   C1B17385  17.099  18.714   4.582
 1510DOPC   D2B17386  17.249  18.744   5.002
 1510DOPC   C3B17387  17.599  18.954   5.302
 1510DOPC   C4B17388  17.869  18.664   5.582
 1511DOPC   NC317389  12.119   1.854   8.202
 1511DOPC   PO417390  11.699   1.864   7.982
 1511DOPC   GL117391  11.949   2.044   7.702
 1511DOPC   GL217392  12.149   2.184   7.772
 1511DOPC   C1A17393  11.999   2.374   7.262
 1511DOPC   D2A17394  12.019   2.504   6.872
 1511DOPC   C3A17395  12.319   2.734   6.822
 1511DOPC   C4A17396  12.689   2.864   6.582
 1511DOPC   C1B17397  12.409   2.484   7.552
 1511DOPC   D2B17398  12.539   2.844   7.312
 1511DOPC   C3B17399  12.199   3.204   7.292
 1511DOPC   C4B17400  12.269   3.614   7.062
 1512DOPC   NC317401   7.799   7.444   3.812
 1512DOPC   PO417402   8.069   7.414   4.142
 1512DOPC   GL117403   7.999   7.304   4.512
 1512DOPC   GL217404   8.079   6.974   4.602
 1512DOPC   C1A17405   7.999   7.234   5.022
 1512DOPC   D2A17406   7.979   7.114   5.442
 1512DOPC   C3A17407   8.059   6.854   5.782
 1512DOPC   C4A17408   8.029   6.834   6.222
 1512DOPC   C1B17409   8.399   7.014   4.852
 1512DOPC   D2B17410   8.449   7.034   5.272
 1512DOPC   C3B17411   8.569   6.794   5.672
 1512DOPC   C4B17412   8.539   6.814   6.112
 1513DOPC   NC317413  11.489  17.054   4.372
 1513DOPC   PO417414  11.169  17.064   4.782
 1513DOPC   GL117415  11.299  17.004   5.212
 1513DOPC   GL217416  11.659  16.824   5.342
 1513DOPC   C1A17417  11.219  17.224   5.532
 1513DOPC   D2A17418  10.799  17.544   5.582
 1513DOPC   C3A17419  10.719  17.944   5.592
 1513DOPC   C4A17420  10.809  18.314   5.842
 1513DOPC   C1B17421  11.289  16.724   5.722
 1513DOPC   D2B17422  11.099  16.584   6.192
 1513DOPC   C3B17423  10.879  16.704   6.452
 1513DOPC   C4B17424  10.639  16.934   6.772
 1514DOPC   NC317425  11.459  15.914   5.122
 1514DOPC   PO417426  11.769  16.154   5.122
 1514DOPC   GL117427  11.879  16.294   5.472
 1514DOPC   GL217428  11.509  16.094   5.612
 1514DOPC   C1A17429  11.759  16.514   5.832
 1514DOPC   D2A17430  11.559  16.814   6.152
 1514DOPC   C3A17431  11.319  17.144   6.122
 1514DOPC   C4A17432  10.959  17.104   6.182
 1514DOPC   C1B17433  11.399  16.134   5.972
 1514DOPC   D2B17434  11.619  16.344   6.332
 1514DOPC   C3B17435  11.939  16.094   6.522
 1514DOPC   C4B17436  12.339  16.294   6.612
 1515DOPC   NC317437  19.559  24.621   3.742
 1515DOPC   PO417438  19.919  24.331   3.982
 1515DOPC   GL117439  20.019  24.351   4.432
 1515DOPC   GL217440  20.299  24.301   4.602
 1515DOPC   C1A17441  20.109  24.691   4.732
 1515DOPC   D2A17442  20.229  24.811   5.142
 1515DOPC   C3A17443  20.689  24.611   5.282
 1515DOPC   C4A17444  21.139  24.491   5.332
 1515DOPC   C1B17445  20.379  24.291   5.032
 1515DOPC   D2B17446  20.539  24.241   5.532
 1515DOPC   C3B17447  20.779  24.611   5.782
 1515DOPC   C4B17448  20.989  24.931   6.092
 1516DOPC   NC317449  14.649  19.254   4.372
 1516DOPC   PO417450  14.729  18.934   4.682
 1516DOPC   GL117451  14.959  18.854   5.092
 1516DOPC   GL217452  15.149  18.554   5.052
 1516DOPC   C1A17453  15.049  18.844   5.562
 1516DOPC   D2A17454  15.049  18.514   5.802
 1516DOPC   C3A17455  15.219  18.634   6.112
 1516DOPC   C4A17456  15.009  18.824   6.422
 1516DOPC   C1B17457  14.879  18.454   5.342
 1516DOPC   D2B17458  14.609  18.664   5.542
 1516DOPC   C3B17459  14.749  18.884   5.932
 1516DOPC   C4B17460  14.919  19.244   6.122
 1517DOPC   NC317461   4.139   7.044   6.602
 1517DOPC   PO417462   3.779   7.134   6.392
 1517DOPC   GL117463   4.279   7.284   6.212
 1517DOPC   GL217464   4.189   6.974   6.052
 1517DOPC   C1A17465   4.259   7.344   5.742
 1517DOPC   D2A17466   4.209   7.074   5.412
 1517DOPC   C3A17467   4.089   7.044   5.052
 1517DOPC   C4A17468   3.869   7.214   4.712
 1517DOPC   C1B17469   4.379   6.704   5.702
 1517DOPC   D2B17470   4.169   6.514   5.292
 1517DOPC   C3B17471   4.379   6.674   4.922
 1517DOPC   C4B17472   4.219   6.744   4.512
 1518DOPC   NC317473   1.359  17.034   3.902
 1518DOPC   PO417474   1.579  16.744   3.632
 1518DOPC   GL117475   1.639  16.624   4.032
 1518DOPC   GL217476   1.559  16.334   4.062
 1518DOPC   C1A17477   1.699  16.624   4.512
 1518DOPC   D2A17478   1.449  16.574   4.912
 1518DOPC   C3A17479   1.149  16.724   4.812
 1518DOPC   C4A17480   1.009  17.034   4.572
 1518DOPC   C1B17481   1.539  16.104   4.422
 1518DOPC   D2B17482   1.439  15.994   4.832
 1518DOPC   C3B17483   1.159  15.974   5.132
 1518DOPC   C4B17484   0.809  16.084   5.492
 1519DOPC   NC317485  24.759   0.434   3.872
 1519DOPC   PO417486  25.139   0.584   4.042
 1519DOPC   GL117487  25.199   0.644   4.402
 1519DOPC   GL217488  25.499   0.724   4.422
 1519DOPC   C1A17489  24.899   0.654   4.712
 1519DOPC   D2A17490  24.889   0.764   5.232
 1519DOPC   C3A17491  24.959   1.074   5.482
 1519DOPC   C4A17492  25.289   1.194   5.652
 1519DOPC   C1B17493  25.459   0.784   4.882
 1519DOPC   D2B17494  25.449   0.884   5.302
 1519DOPC   C3B17495  25.896   0.884   5.372
 1519DOPC   C4B17496  26.346   0.664   5.582
 1520DOPC   NC317497  17.969   9.354   4.062
 1520DOPC   PO417498  17.749   9.094   4.162
 1520DOPC   GL117499  17.559   9.124   4.582
 1520DOPC   GL217500  17.319   9.264   4.642
 1520DOPC   C1A17501  17.679   8.914   4.982
 1520DOPC   D2A17502  17.909   8.804   5.402
 1520DOPC   C3A17503  18.019   8.364   5.282
 1520DOPC   C4A17504  18.019   8.094   4.922
 1520DOPC   C1B17505  17.249   9.334   5.022
 1520DOPC   D2B17506  17.589   9.264   5.342
 1520DOPC   C3B17507  17.649   9.104   5.832
 1520DOPC   C4B17508  17.909   9.294   6.152
 1521DOPC   NC317509   5.699   5.114   3.632
 1521DOPC   PO417510   6.179   5.024   3.622
 1521DOPC   GL117511   6.059   4.864   3.922
 1521DOPC   GL217512   6.219   5.134   4.132
 1521DOPC   C1A17513   5.849   4.954   4.342
 1521DOPC   D2A17514   5.569   5.004   4.692
 1521DOPC   C3A17515   5.559   4.974   5.072
 1521DOPC   C4A17516   5.419   5.204   5.352
 1521DOPC   C1B17517   6.199   5.404   4.512
 1521DOPC   D2B17518   5.829   5.444   4.682
 1521DOPC   C3B17519   5.749   5.864   4.772
 1521DOPC   C4B17520   5.759   6.244   5.062
 1522DOPC   NC317521  23.479  18.754   3.682
 1522DOPC   PO417522  23.129  18.404   3.602
 1522DOPC   GL117523  23.069  18.384   4.052
 1522DOPC   GL217524  23.059  18.664   4.252
 1522DOPC   C1A17525  22.929  18.264   4.472
 1522DOPC   D2A17526  22.849  18.334   4.962
 1522DOPC   C3A17527  22.609  18.764   4.912
 1522DOPC   C4A17528  22.229  19.054   4.982
 1522DOPC   C1B17529  23.139  18.684   4.722
 1522DOPC   D2B17530  23.099  18.784   5.062
 1522DOPC   C3B17531  23.149  18.444   5.362
 1522DOPC   C4B17532  23.249  18.144   5.672
 1523DOPC   NC317533   3.709  22.731   3.902
 1523DOPC   PO417534   4.059  22.941   3.932
 1523DOPC   GL117535   3.869  23.021   4.362
 1523DOPC   GL217536   3.489  22.841   4.382
 1523DOPC   C1A17537   3.689  23.111   4.702
 1523DOPC   D2A17538   3.719  23.111   5.132
 1523DOPC   C3A17539   3.549  23.411   5.402
 1523DOPC   C4A17540   3.689  23.421   5.882
 1523DOPC   C1B17541   3.249  22.731   4.752
 1523DOPC   D2B17542   3.319  22.391   5.162
 1523DOPC   C3B17543   3.189  22.221   5.452
 1523DOPC   C4B17544   3.189  22.171   5.952
 1524DOPC   NC317545  17.999  20.324   3.072
 1524DOPC   PO417546  17.619  20.404   2.882
 1524DOPC   GL117547  17.609  20.394   3.382
 1524DOPC   GL217548  17.329  20.404   3.552
 1524DOPC   C1A17549  17.749  20.344   3.802
 1524DOPC   D2A17550  17.499  20.434   4.152
 1524DOPC   C3A17551  17.559  20.674   4.482
 1524DOPC   C4A17552  17.459  20.874   4.802
 1524DOPC   C1B17553  17.219  20.094   3.912
 1524DOPC   D2B17554  17.009  20.174   4.322
 1524DOPC   C3B17555  16.999  19.824   4.762
 1524DOPC   C4B17556  17.119  19.594   5.132
 1525DOPC   NC317557  17.339  13.364   8.142
 1525DOPC   PO417558  16.869  13.374   8.252
 1525DOPC   GL117559  16.519  13.374   7.962
 1525DOPC   GL217560  16.479  12.994   7.792
 1525DOPC   C1A17561  16.559  13.404   7.452
 1525DOPC   D2A17562  16.349  13.234   7.102
 1525DOPC   C3A17563  16.429  13.114   6.672
 1525DOPC   C4A17564  16.239  13.004   6.352
 1525DOPC   C1B17565  16.139  13.134   7.572
 1525DOPC   D2B17566  15.809  13.284   7.482
 1525DOPC   C3B17567  15.589  13.324   7.092
 1525DOPC   C4B17568  15.579  13.224   6.662
 1526DOPC   NC317569  20.739  20.304   3.572
 1526DOPC   PO417570  20.389  20.604   3.682
 1526DOPC   GL117571  20.469  20.584   4.042
 1526DOPC   GL217572  20.539  20.284   4.072
 1526DOPC   C1A17573  20.769  20.754   4.292
 1526DOPC   D2A17574  20.589  21.014   4.572
 1526DOPC   C3A17575  20.249  21.284   4.822
 1526DOPC   C4A17576  20.369  21.431   5.242
 1526DOPC   C1B17577  20.629  20.054   4.572
 1526DOPC   D2B17578  20.819  19.974   4.952
 1526DOPC   C3B17579  21.069  20.254   5.232
 1526DOPC   C4B17580  21.059  20.624   5.372
 1527DOPC   NC317581   7.189  24.731   7.812
 1527DOPC   PO417582   6.789  24.641   7.942
 1527DOPC   GL117583   6.839  24.681   7.492
 1527DOPC   GL217584   6.699  24.611   7.272
 1527DOPC   C1A17585   7.169  24.701   7.112
 1527DOPC   D2A17586   7.279  24.541   6.732
 1527DOPC   C3A17587   7.699  24.681   6.692
 1527DOPC   C4A17588   8.079  25.001   6.532
 1527DOPC   C1B17589   6.399  24.361   7.032
 1527DOPC   D2B17590   6.409  24.281   6.572
 1527DOPC   C3B17591   6.689  23.991   6.312
 1527DOPC   C4B17592   6.589  23.601   6.052
 1528DOPC   NC317593  11.319   7.644   3.652
 1528DOPC   PO417594  11.129   7.494   3.962
 1528DOPC   GL117595  11.229   7.534   4.452
 1528DOPC   GL217596  10.939   7.704   4.782
 1528DOPC   C1A17597  11.389   7.564   4.852
 1528DOPC   D2A17598  11.179   7.804   5.262
 1528DOPC   C3A17599  10.859   8.094   5.242
 1528DOPC   C4A17600  10.529   8.494   5.152
 1528DOPC   C1B17601  10.579   7.644   5.032
 1528DOPC   D2B17602  10.319   7.384   5.282
 1528DOPC   C3B17603  10.289   7.504   5.622
 1528DOPC   C4B17604  10.359   7.504   5.932
 1529DOPC   NC317605   2.359  14.534   2.902
 1529DOPC   PO417606   2.399  14.684   3.312
 1529DOPC   GL117607   2.399  14.574   3.702
 1529DOPC   GL217608   2.559  14.204   3.732
 1529DOPC   C1A17609   2.679  14.794   3.962
 1529DOPC   D2A17610   3.099  14.854   4.092
 1529DOPC   C3A17611   2.959  15.174   4.412
 1529DOPC   C4A17612   2.649  15.544   4.432
 1529DOPC   C1B17613   2.819  14.304   4.062
 1529DOPC   D2B17614   2.859  14.564   4.472
 1529DOPC   C3B17615   3.129  14.824   4.802
 1529DOPC   C4B17616   3.059  14.964   5.232
 1530DOPC   NC317617  22.929   0.004   3.692
 1530DOPC   PO417618  22.469   0.154   3.702
 1530DOPC   GL117619  22.679   0.284   4.042
 1530DOPC   GL217620  22.499   0.664   4.182
 1530DOPC   C1A17621  22.599   0.114   4.452
 1530DOPC   D2A17622  22.779   0.184   4.842
 1530DOPC   C3A17623  22.799   0.504   5.142
 1530DOPC   C4A17624  22.829   0.984   5.042
 1530DOPC   C1B17625  22.619   1.114   4.452
 1530DOPC   D2B17626  22.509   1.364   4.752
 1530DOPC   C3B17627  22.409   1.264   5.172
 1530DOPC   C4B17628  22.279   1.224   5.532
 1531DOPC   NC317629  12.619  17.564   4.862
 1531DOPC   PO417630  12.509  17.954   4.872
 1531DOPC   GL117631  12.399  18.044   5.202
 1531DOPC   GL217632  12.389  17.734   5.302
 1531DOPC   C1A17633  12.229  18.294   5.572
 1531DOPC   D2A17634  12.369  18.224   5.952
 1531DOPC   C3A17635  12.089  18.004   6.192
 1531DOPC   C4A17636  12.169  17.684   6.542
 1531DOPC   C1B17637  12.419  17.714   5.692
 1531DOPC   D2B17638  12.579  17.814   6.102
 1531DOPC   C3B17639  12.649  17.544   6.542
 1531DOPC   C4B17640  12.749  17.724   6.882
 1532DOPC   NC317641  23.429  15.804   3.922
 1532DOPC   PO417642  23.799  15.544   3.792
 1532DOPC   GL117643  23.629  15.484   4.282
 1532DOPC   GL217644  23.629  15.864   4.382
 1532DOPC   C1A17645  23.789  15.334   4.682
 1532DOPC   D2A17646  24.049  15.084   4.892
 1532DOPC   C3A17647  23.929  14.784   5.142
 1532DOPC   C4A17648  23.769  14.374   5.182
 1532DOPC   C1B17649  23.559  15.784   4.912
 1532DOPC   D2B17650  23.229  15.624   5.242
 1532DOPC   C3B17651  23.239  15.724   5.702
 1532DOPC   C4B17652  23.639  15.554   5.892
 1533DOPC   NC317653  10.959  23.301   4.002
 1533DOPC   PO417654  10.819  23.271   4.432
 1533DOPC   GL117655  10.629  23.081   4.892
 1533DOPC   GL217656  10.349  23.261   5.072
 1533DOPC   C1A17657  10.669  22.971   5.352
 1533DOPC   D2A17658  10.849  22.941   5.682
 1533DOPC   C3A17659  10.699  23.021   6.042
 1533DOPC   C4A17660  10.649  23.251   6.372
 1533DOPC   C1B17661  10.479  23.451   5.512
 1533DOPC   D2B17662  10.789  23.461   5.752
 1533DOPC   C3B17663  10.829  23.691   6.132
 1533DOPC   C4B17664  10.719  24.031   6.402
 1534DOPC   NC317665   1.119  21.651   7.872
 1534DOPC   PO417666   0.889  21.334   7.862
 1534DOPC   GL117667   0.969  21.381   7.422
 1534DOPC   GL217668   1.129  21.561   7.352
 1534DOPC   C1A17669   0.759  21.521   6.952
 1534DOPC   D2A17670   0.949  21.401   6.502
 1534DOPC   C3A17671   0.699  21.471   6.072
 1534DOPC   C4A17672   0.449  21.294   5.782
 1534DOPC   C1B17673   1.249  21.441   6.882
 1534DOPC   D2B17674   1.689  21.401   6.742
 1534DOPC   C3B17675   1.899  21.064   6.832
 1534DOPC   C4B17676   1.949  20.714   7.062
 1535DOPC   NC317677  19.169  25.231   8.132
 1535DOPC   PO417678  19.309  25.281   7.642
 1535DOPC   GL117679  19.379  25.381   7.152
 1535DOPC   GL217680  19.659  25.161   6.992
 1535DOPC   C1A17681  19.349  25.581   6.682
 1535DOPC   D2A17682  19.089  25.901   6.402
 1535DOPC   C3A17683  19.189  26.271   6.182
 1535DOPC   C4A17684  19.319  26.351   5.792
 1535DOPC   C1B17685  19.569  24.901   6.692
 1535DOPC   D2B17686  19.399  24.961   6.232
 1535DOPC   C3B17687  19.349  24.501   6.022
 1535DOPC   C4B17688  19.299  24.161   6.202
 1536DOPC   NC317689  18.839  16.444   4.082
 1536DOPC   PO417690  19.379  16.474   4.002
 1536DOPC   GL117691  19.539  16.424   4.402
 1536DOPC   GL217692  19.929  16.364   4.382
 1536DOPC   C1A17693  19.809  16.394   4.832
 1536DOPC   D2A17694  19.969  16.254   5.152
 1536DOPC   C3A17695  19.839  15.804   5.242
 1536DOPC   C4A17696  19.689  15.374   5.452
 1536DOPC   C1B17697  20.279  16.394   4.592
 1536DOPC   D2B17698  20.499  16.514   4.862
 1536DOPC   C3B17699  20.609  16.214   5.132
 1536DOPC   C4B17700  20.779  15.934   5.502
 1537DOPC   NC317701   1.899  23.981   3.892
 1537DOPC   PO417702   2.359  24.151   4.022
 1537DOPC   GL117703   2.179  24.321   4.342
 1537DOPC   GL217704   2.449  24.451   4.522
 1537DOPC   C1A17705   2.039  24.021   4.652
 1537DOPC   D2A17706   2.069  23.731   4.822
 1537DOPC   C3A17707   2.199  23.481   4.662
 1537DOPC   C4A17708   2.429  23.291   4.422
 1537DOPC   C1B17709   2.159  24.661   4.812
 1537DOPC   D2B17710   2.239  24.911   5.212
 1537DOPC   C3B17711   2.509  25.291   5.202
 1537DOPC   C4B17712   2.939  25.481   5.042
 1538DOPC   NC317713  12.249  19.804   4.832
 1538DOPC   PO417714  12.739  19.684   4.932
 1538DOPC   GL117715  12.789  19.844   5.332
 1538DOPC   GL217716  13.139  19.764   5.332
 1538DOPC   C1A17717  12.689  19.794   5.672
 1538DOPC   D2A17718  12.449  19.764   6.032
 1538DOPC   C3A17719  12.319  19.744   6.462
 1538DOPC   C4A17720  12.249  19.884   6.872
 1538DOPC   C1B17721  13.319  19.584   5.692
 1538DOPC   D2B17722  13.589  19.524   6.092
 1538DOPC   C3B17723  13.669  19.984   6.282
 1538DOPC   C4B17724  13.599  20.324   6.222
 1539DOPC   NC317725  13.019  12.674   5.252
 1539DOPC   PO417726  12.899  13.054   5.272
 1539DOPC   GL117727  13.149  13.054   5.622
 1539DOPC   GL217728  13.269  13.274   5.922
 1539DOPC   C1A17729  13.009  12.754   5.992
 1539DOPC   D2A17730  12.899  12.484   6.402
 1539DOPC   C3A17731  12.669  12.184   6.272
 1539DOPC   C4A17732  12.439  11.824   6.402
 1539DOPC   C1B17733  13.399  13.534   6.312
 1539DOPC   D2B17734  13.569  13.894   6.532
 1539DOPC   C3B17735  13.999  14.014   6.702
 1539DOPC   C4B17736  14.349  14.104   6.762
 1540DOPC   NC317737  22.399   1.354   7.352
 1540DOPC   PO417738  22.849   1.204   7.292
 1540DOPC   GL117739  22.829   1.234   6.902
 1540DOPC   GL217740  23.129   1.034   6.782
 1540DOPC   C1A17741  22.829   1.284   6.442
 1540DOPC   D2A17742  23.039   1.174   6.132
 1540DOPC   C3A17743  22.799   1.174   5.792
 1540DOPC   C4A17744  22.809   0.804   5.512
 1540DOPC   C1B17745  23.239   0.684   6.332
 1540DOPC   D2B17746  23.219   0.774   5.932
 1540DOPC   C3B17747  23.329   0.984   5.542
 1540DOPC   C4B17748  23.219   1.284   5.282
 1541DOPC   NC317749  21.409  15.054   3.752
 1541DOPC   PO417750  21.049  15.214   3.932
 1541DOPC   GL117751  21.019  15.454   4.262
 1541DOPC   GL217752  20.899  15.704   4.232
 1541DOPC   C1A17753  21.019  15.334   4.642
 1541DOPC   D2A17754  20.949  15.014   4.952
 1541DOPC   C3A17755  20.849  15.044   5.322
 1541DOPC   C4A17756  20.569  15.494   5.532
 1541DOPC   C1B17757  20.639  15.644   4.532
 1541DOPC   D2B17758  20.809  15.784   4.902
 1541DOPC   C3B17759  20.949  15.514   5.122
 1541DOPC   C4B17760  21.279  15.504   5.032
 1542DOPC   NC317761  22.429  17.414   3.852
 1542DOPC   PO417762  21.989  17.354   3.902
 1542DOPC   GL117763  21.889  17.334   4.302
 1542DOPC   GL217764  22.059  17.544   4.552
 1542DOPC   C1A17765  21.709  17.144   4.602
 1542DOPC   D2A17766  21.329  17.194   4.852
 1542DOPC   C3A17767  21.279  17.514   5.142
 1542DOPC   C4A17768  21.479  17.924   5.352
 1542DOPC   C1B17769  22.329  17.684   4.972
 1542DOPC   D2B17770  22.419  17.734   5.442
 1542DOPC   C3B17771  22.149  17.444   5.522
 1542DOPC   C4B17772  21.899  17.114   5.742
 1543DOPC   NC317773  16.109  21.511   3.432
 1543DOPC   PO417774  16.399  21.701   3.682
 1543DOPC   GL117775  16.559  21.511   4.022
 1543DOPC   GL217776  16.579  21.691   4.292
 1543DOPC   C1A17777  16.709  21.234   4.422
 1543DOPC   D2A17778  16.799  20.954   4.742
 1543DOPC   C3A17779  17.069  21.034   5.092
 1543DOPC   C4A17780  17.339  21.084   5.452
 1543DOPC   C1B17781  16.789  21.591   4.722
 1543DOPC   D2B17782  16.819  21.621   5.132
 1543DOPC   C3B17783  16.999  21.461   5.462
 1543DOPC   C4B17784  16.929  21.461   5.852
 1544DOPC   NC317785   8.289   1.904   7.812
 1544DOPC   PO417786   8.229   1.474   7.942
 1544DOPC   GL117787   8.259   1.534   7.452
 1544DOPC   GL217788   8.489   1.864   7.312
 1544DOPC   C1A17789   7.969   1.394   7.152
 1544DOPC   D2A17790   7.829   1.074   7.082
 1544DOPC   C3A17791   7.439   1.164   6.912
 1544DOPC   C4A17792   7.219   0.944   6.692
 1544DOPC   C1B17793   8.449   1.644   6.952
 1544DOPC   D2B17794   8.729   1.354   6.472
 1544DOPC   C3B17795   8.859   1.334   6.102
 1544DOPC   C4B17796   8.999   1.374   5.662
 1545DOPC   NC317797   6.029   0.314   3.912
 1545DOPC   PO417798   5.689   0.674   3.802
 1545DOPC   GL117799   5.859   0.764   4.232
 1545DOPC   GL217800   6.209   0.854   4.392
 1545DOPC   C1A17801   5.889   0.764   4.732
 1545DOPC   D2A17802   5.869   0.864   5.062
 1545DOPC   C3A17803   5.799   0.434   5.232
 1545DOPC   C4A17804   5.439   0.324   5.422
 1545DOPC   C1B17805   5.959   1.184   4.452
 1545DOPC   D2B17806   5.599   1.394   4.342
 1545DOPC   C3B17807   5.439   1.754   4.542
 1545DOPC   C4B17808   5.079   1.774   4.822
 1546DOPC   NC317809   7.849  18.304   4.532
 1546DOPC   PO417810   7.889  18.764   4.482
 1546DOPC   GL117811   7.949  19.014   4.912
 1546DOPC   GL217812   8.349  19.024   4.852
 1546DOPC   C1A17813   8.069  18.974   5.292
 1546DOPC   D2A17814   8.169  18.784   5.582
 1546DOPC   C3A17815   7.899  18.554   5.752
 1546DOPC   C4A17816   7.469  18.634   5.952
 1546DOPC   C1B17817   8.709  19.244   5.032
 1546DOPC   D2B17818   9.129  19.144   5.302
 1546DOPC   C3B17819   9.269  19.534   5.632
 1546DOPC   C4B17820   9.389  19.844   5.992
 1547DOPC   NC317821  17.589   2.804   8.262
 1547DOPC   PO417822  17.609   3.144   7.972
 1547DOPC   GL117823  17.699   3.124   7.552
 1547DOPC   GL217824  17.699   3.474   7.512
 1547DOPC   C1A17825  17.449   2.804   7.292
 1547DOPC   D2A17826  17.039   2.754   7.132
 1547DOPC   C3A17827  16.819   2.844   6.682
 1547DOPC   C4A17828  16.689   3.094   6.232
 1547DOPC   C1B17829  17.939   3.414   7.112
 1547DOPC   D2B17830  17.989   3.444   6.722
 1547DOPC   C3B17831  18.399   3.354   6.382
 1547DOPC   C4B17832  18.519   3.014   6.052
 1548DOPC   NC317833  -0.339  19.044   3.812
 1548DOPC   PO417834   0.109  18.944   3.782
 1548DOPC   GL117835   0.139  18.804   4.172
 1548DOPC   GL217836   0.399  18.734   4.282
 1548DOPC   C1A17837  -0.009  18.814   4.642
 1548DOPC   D2A17838   0.119  18.614   4.972
 1548DOPC   C3A17839   0.199  18.724   5.352
 1548DOPC   C4A17840   0.079  18.794   5.832
 1548DOPC   C1B17841   0.569  18.794   4.672
 1548DOPC   D2B17842   0.679  18.524   4.962
 1548DOPC   C3B17843   0.739  18.254   4.732
 1548DOPC   C4B17844   0.989  17.844   4.582
 1549DOPC   NC317845   8.449   3.894   3.872
 1549DOPC   PO417846   8.459   4.354   4.072
 1549DOPC   GL117847   8.259   4.284   4.572
 1549DOPC   GL217848   8.249   4.014   4.702
 1549DOPC   C1A17849   8.019   4.554   4.752
 1549DOPC   D2A17850   8.069   4.764   5.092
 1549DOPC   C3A17851   8.169   4.614   5.432
 1549DOPC   C4A17852   8.059   4.624   5.842
 1549DOPC   C1B17853   8.509   3.964   5.072
 1549DOPC   D2B17854   8.489   3.954   5.492
 1549DOPC   C3B17855   8.449   3.614   5.622
 1549DOPC   C4B17856   8.789   3.444   6.022
 1550DOPC   NC317857  24.459  14.504   3.542
 1550DOPC   PO417858  24.219  14.134   3.782
 1550DOPC   GL117859  24.449  14.374   4.142
 1550DOPC   GL217860  24.669  14.494   4.022
 1550DOPC   C1A17861  24.439  14.534   4.552
 1550DOPC   D2A17862  24.389  14.704   4.932
 1550DOPC   C3A17863  24.289  14.354   5.142
 1550DOPC   C4A17864  24.519  14.094   5.312
 1550DOPC   C1B17865  24.739  14.134   4.432
 1550DOPC   D2B17866  24.679  14.054   4.872
 1550DOPC   C3B17867  24.759  13.704   5.062
 1550DOPC   C4B17868  25.009  13.474   5.402
 1551DOPC   NC317869   8.869   4.164   4.032
 1551DOPC   PO417870   8.949   3.784   3.962
 1551DOPC   GL117871   9.189   3.814   4.342
 1551DOPC   GL217872   9.199   4.104   4.392
 1551DOPC   C1A17873   9.169   3.824   4.762
 1551DOPC   D2A17874   9.069   4.084   5.072
 1551DOPC   C3A17875   9.189   4.164   5.422
 1551DOPC   C4A17876   9.279   4.094   5.722
 1551DOPC   C1B17877   9.219   4.484   4.742
 1551DOPC   D2B17878   8.999   4.664   5.092
 1551DOPC   C3B17879   9.149   4.744   5.492
 1551DOPC   C4B17880   9.179   4.914   5.892
 1552DOPC   NC317881  23.229   0.324   7.662
 1552DOPC   PO417882  22.909   0.164   7.482
 1552DOPC   GL117883  23.009   0.294   7.092
 1552DOPC   GL217884  22.889   0.634   7.002
 1552DOPC   C1A17885  23.169   0.304   6.742
 1552DOPC   D2A17886  22.979   0.264   6.272
 1552DOPC   C3A17887  22.549   0.204   6.192
 1552DOPC   C4A17888  22.369   0.164   5.852
 1552DOPC   C1B17889  22.779   0.724   6.622
 1552DOPC   D2B17890  22.669   0.744   6.312
 1552DOPC   C3B17891  22.789   0.494   5.882
 1552DOPC   C4B17892  23.149   0.434   5.512
 1553DOPC   NC317893   7.239  21.084   8.422
 1553DOPC   PO417894   7.289  20.824   8.022
 1553DOPC   GL117895   7.279  20.874   7.542
 1553DOPC   GL217896   6.989  20.684   7.662
 1553DOPC   C1A17897   7.029  21.064   7.322
 1553DOPC   D2A17898   6.849  20.944   6.892
 1553DOPC   C3A17899   7.099  21.104   6.522
 1553DOPC   C4A17900   7.499  21.114   6.342
 1553DOPC   C1B17901   7.059  20.554   7.232
 1553DOPC   D2B17902   7.429  20.794   7.012
 1553DOPC   C3B17903   7.709  20.844   6.672
 1553DOPC   C4B17904   7.999  21.184   6.482
 1554DOPC   NC317905   7.809   9.554   4.182
 1554DOPC   PO417906   7.589   9.234   3.972
 1554DOPC   GL117907   7.509   9.204   4.392
 1554DOPC   GL217908   7.729   9.284   4.632
 1554DOPC   C1A17909   7.149   9.324   4.662
 1554DOPC   D2A17910   7.209   9.264   5.062
 1554DOPC   C3A17911   7.409   9.594   5.362
 1554DOPC   C4A17912   7.679   9.804   5.752
 1554DOPC   C1B17913   7.659   9.504   4.942
 1554DOPC   D2B17914   7.879   9.364   5.322
 1554DOPC   C3B17915   8.209   9.164   5.582
 1554DOPC   C4B17916   8.489   8.974   5.972
 1555DOPC   NC317917  15.629  14.994   4.412
 1555DOPC   PO417918  15.449  14.954   4.882
 1555DOPC   GL117919  15.369  14.734   5.272
 1555DOPC   GL217920  15.039  14.684   5.402
 1555DOPC   C1A17921  15.579  14.824   5.602
 1555DOPC   D2A17922  15.909  15.164   5.772
 1555DOPC   C3A17923  16.129  15.134   6.172
 1555DOPC   C4A17924  16.399  15.224   6.472
 1555DOPC   C1B17925  14.969  14.984   5.802
 1555DOPC   D2B17926  15.049  15.094   6.202
 1555DOPC   C3B17927  15.329  14.804   6.412
 1555DOPC   C4B17928  15.669  14.464   6.452
 1556DOPC   NC317929   6.939   7.874   3.442
 1556DOPC   PO417930   6.929   8.314   3.632
 1556DOPC   GL117931   7.109   8.254   4.082
 1556DOPC   GL217932   7.329   8.424   4.072
 1556DOPC   C1A17933   7.279   7.994   4.382
 1556DOPC   D2A17934   7.269   7.844   4.822
 1556DOPC   C3A17935   6.839   7.834   4.992
 1556DOPC   C4A17936   6.449   7.754   5.202
 1556DOPC   C1B17937   7.139   8.554   4.502
 1556DOPC   D2B17938   7.249   8.454   4.862
 1556DOPC   C3B17939   7.549   8.154   5.092
 1556DOPC   C4B17940   7.469   8.274   5.532
 1557DOPC   NC317941  22.489  23.391   8.032
 1557DOPC   PO417942  22.339  23.641   7.712
 1557DOPC   GL117943  22.169  23.841   7.322
 1557DOPC   GL217944  22.379  24.141   7.242
 1557DOPC   C1A17945  21.829  23.691   7.182
 1557DOPC   D2A17946  21.619  23.221   7.122
 1557DOPC   C3A17947  21.429  23.081   6.722
 1557DOPC   C4A17948  21.619  22.981   6.312
 1557DOPC   C1B17949  22.359  24.331   6.822
 1557DOPC   D2B17950  22.159  24.511   6.392
 1557DOPC   C3B17951  22.349  24.801   6.162
 1557DOPC   C4B17952  22.789  24.861   5.992
 1558DOPC   NC317953  14.989   9.124   4.342
 1558DOPC   PO417954  14.899   8.684   4.392
 1558DOPC   GL117955  14.639   8.614   4.732
 1558DOPC   GL217956  14.569   8.304   4.842
 1558DOPC   C1A17957  14.669   8.794   5.112
 1558DOPC   D2A17958  14.669   8.904   5.542
 1558DOPC   C3A17959  14.599   8.674   5.962
 1558DOPC   C4A17960  14.589   8.514   6.382
 1558DOPC   C1B17961  14.479   8.344   5.282
 1558DOPC   D2B17962  14.269   8.384   5.672
 1558DOPC   C3B17963  14.189   8.864   5.802
 1558DOPC   C4B17964  13.899   9.244   5.902
 1559DOPC   NC317965  12.069  11.584   5.832
 1559DOPC   PO417966  11.879  11.384   5.492
 1559DOPC   GL117967  11.759  11.124   5.862
 1559DOPC   GL217968  11.459  11.014   6.062
 1559DOPC   C1A17969  11.869  10.904   6.232
 1559DOPC   D2A17970  12.239  10.834   6.532
 1559DOPC   C3A17971  12.359  11.274   6.772
 1559DOPC   C4A17972  12.409  11.324   7.122
 1559DOPC   C1B17973  11.369  10.804   6.412
 1559DOPC   D2B17974  10.959  10.784   6.702
 1559DOPC   C3B17975  11.009  10.924   6.982
 1559DOPC   C4B17976  10.799  11.034   7.392
 1560DOPC   NC317977  17.579  10.754   4.262
 1560DOPC   PO417978  17.759  11.134   4.312
 1560DOPC   GL117979  17.919  10.874   4.642
 1560DOPC   GL217980  18.199  11.134   4.912
 1560DOPC   C1A17981  17.949  10.704   5.042
 1560DOPC   D2A17982  17.839  10.644   5.462
 1560DOPC   C3A17983  17.589  10.914   5.762
 1560DOPC   C4A17984  17.199  10.794   5.882
 1560DOPC   C1B17985  18.439  10.954   5.172
 1560DOPC   D2B17986  18.609  10.974   5.452
 1560DOPC   C3B17987  18.509  11.174   5.942
 1560DOPC   C4B17988  18.409  11.324   6.332
 1561DOPC   NC317989  16.129   3.044   3.682
 1561DOPC   PO417990  16.149   3.094   4.022
 1561DOPC   GL117991  16.109   2.834   4.462
 1561DOPC   GL217992  15.969   2.914   4.772
 1561DOPC   C1A17993  16.389   2.764   4.862
 1561DOPC   D2A17994  16.719   2.784   5.222
 1561DOPC   C3A17995  16.409   2.794   5.532
 1561DOPC   C4A17996  16.209   2.704   5.932
 1561DOPC   C1B17997  15.949   2.754   5.312
 1561DOPC   D2B17998  16.019   2.394   5.512
 1561DOPC   C3B17999  15.829   2.404   5.902
 1561DOPC   C4B18000  15.539   2.524   6.112
 1562DOPC   NC318001  19.809   5.134   7.952
 1562DOPC   PO418002  20.139   4.794   7.822
 1562DOPC   GL118003  20.239   4.724   7.352
 1562DOPC   GL218004  19.949   4.514   7.122
 1562DOPC   C1A18005  20.469   4.694   7.002
 1562DOPC   D2A18006  20.869   4.494   6.782
 1562DOPC   C3A18007  20.769   4.574   6.352
 1562DOPC   C4A18008  20.919   4.614   5.892
 1562DOPC   C1B18009  19.869   4.314   6.732
 1562DOPC   D2B18010  19.569   4.464   6.322
 1562DOPC   C3B18011  19.569   4.674   5.792
 1562DOPC   C4B18012  19.379   5.014   5.552
 1563DOPC   NC318013   5.489  11.764   3.662
 1563DOPC   PO418014   5.559  11.344   3.562
 1563DOPC   GL118015   5.559  11.094   4.002
 1563DOPC   GL218016   5.169  10.994   4.002
 1563DOPC   C1A18017   5.639  11.134   4.432
 1563DOPC   D2A18018   5.409  11.344   4.832
 1563DOPC   C3A18019   5.099  11.104   5.092
 1563DOPC   C4A18020   4.819  10.854   5.422
 1563DOPC   C1B18021   4.919  10.664   4.142
 1563DOPC   D2B18022   4.959  10.514   4.642
 1563DOPC   C3B18023   4.699  10.734   4.932
 1563DOPC   C4B18024   4.649  11.074   4.932
 1564DOPC   NC318025  17.369  12.204   8.232
 1564DOPC   PO418026  17.649  11.844   8.202
 1564DOPC   GL118027  17.669  12.104   7.772
 1564DOPC   GL218028  17.939  12.004   7.642
 1564DOPC   C1A18029  17.619  12.444   7.512
 1564DOPC   D2A18030  17.949  12.824   7.352
 1564DOPC   C3A18031  18.269  12.944   7.372
 1564DOPC   C4A18032  18.629  12.794   7.262
 1564DOPC   C1B18033  17.569  11.774   7.402
 1564DOPC   D2B18034  17.349  11.544   7.062
 1564DOPC   C3B18035  17.609  11.384   6.702
 1564DOPC   C4B18036  17.999  11.254   6.622
 1565DOPC   NC318037   0.799  20.924   7.572
 1565DOPC   PO418038   0.309  20.784   7.492
 1565DOPC   GL118039   0.169  20.874   7.022
 1565DOPC   GL218040   0.021  21.114   7.072
 1565DOPC   C1A18041   0.079  20.844   6.472
 1565DOPC   D2A18042   0.179  20.824   6.062
 1565DOPC   C3A18043   0.449  20.624   5.862
 1565DOPC   C4A18044   0.359  20.374   5.552
 1565DOPC   C1B18045   0.139  21.314   6.832
 1565DOPC   D2B18046   0.219  21.661   6.502
 1565DOPC   C3B18047   0.149  21.591   6.052
 1565DOPC   C4B18048  -0.069  21.681   5.732
 1566DOPC   NC318049  20.369  20.994   3.292
 1566DOPC   PO418050  19.969  20.844   3.632
 1566DOPC   GL118051  20.119  21.024   4.072
 1566DOPC   GL218052  20.379  21.154   3.882
 1566DOPC   C1A18053  19.809  21.134   4.452
 1566DOPC   D2A18054  19.699  20.744   4.652
 1566DOPC   C3A18055  19.589  20.684   5.152
 1566DOPC   C4A18056  19.279  20.504   5.492
 1566DOPC   C1B18057  20.519  21.391   4.192
 1566DOPC   D2B18058  20.579  21.561   4.632
 1566DOPC   C3B18059  20.749  21.254   4.952
 1566DOPC   C4B18060  20.899  21.174   5.292
 1567DOPC   NC318061  23.769  21.821   3.672
 1567DOPC   PO418062  23.969  21.521   3.722
 1567DOPC   GL118063  23.929  21.691   4.172
 1567DOPC   GL218064  23.859  21.411   4.292
 1567DOPC   C1A18065  23.849  21.831   4.542
 1567DOPC   D2A18066  23.699  22.141   4.812
 1567DOPC   C3A18067  23.509  22.091   5.242
 1567DOPC   C4A18068  23.649  22.071   5.692
 1567DOPC   C1B18069  23.429  21.561   4.432
 1567DOPC   D2B18070  23.259  21.781   4.782
 1567DOPC   C3B18071  23.209  21.571   5.162
 1567DOPC   C4B18072  23.219  21.164   5.102
 1568DOPC   NC318073  11.529  19.354   5.172
 1568DOPC   PO418074  11.969  19.364   5.022
 1568DOPC   GL118075  11.979  19.324   5.472
 1568DOPC   GL218076  11.759  19.564   5.602
 1568DOPC   C1A18077  12.189  19.294   5.722
 1568DOPC   D2A18078  12.589  19.264   5.772
 1568DOPC   C3A18079  12.979  19.464   6.062
 1568DOPC   C4A18080  13.149  19.404   6.382
 1568DOPC   C1B18081  11.739  19.234   5.922
 1568DOPC   D2B18082  11.749  18.924   6.332
 1568DOPC   C3B18083  12.139  18.944   6.542
 1568DOPC   C4B18084  12.379  19.074   6.872
 1569DOPC   NC318085   6.379  24.691   4.162
 1569DOPC   PO418086   6.539  25.181   4.012
 1569DOPC   GL118087   6.169  25.101   4.342
 1569DOPC   GL218088   6.209  24.921   4.602
 1569DOPC   C1A18089   5.729  25.191   4.452
 1569DOPC   D2A18090   5.389  25.001   4.732
 1569DOPC   C3A18091   5.089  24.761   4.432
 1569DOPC   C4A18092   4.849  24.421   4.462
 1569DOPC   C1B18093   6.279  24.941   5.012
 1569DOPC   D2B18094   6.089  25.031   5.392
 1569DOPC   C3B18095   6.329  25.291   5.662
 1569DOPC   C4B18096   6.749  25.261   5.802
 1570DOPC   NC318097  24.929   1.394   3.622
 1570DOPC   PO418098  24.589   1.654   3.752
 1570DOPC   GL118099  24.759   1.414   4.072
 1570DOPC   GL218100  24.979   1.524   4.212
 1570DOPC   C1A18101  24.659   1.064   4.402
 1570DOPC   D2A18102  24.369   0.834   4.422
 1570DOPC   C3A18103  24.429   0.544   4.702
 1570DOPC   C4A18104  24.729   0.314   5.082
 1570DOPC   C1B18105  25.039   1.624   4.622
 1570DOPC   D2B18106  24.789   1.514   5.112
 1570DOPC   C3B18107  24.929   1.554   5.502
 1570DOPC   C4B18108  25.029   1.824   5.922
 1571DOPC   NC318109   4.769   8.484   6.732
 1571DOPC   PO418110   4.889   8.894   6.852
 1571DOPC   GL118111   5.119   8.694   6.462
 1571DOPC   GL218112   4.989   8.574   6.302
 1571DOPC   C1A18113   5.419   8.834   6.102
 1571DOPC   D2A18114   5.689   9.094   5.792
 1571DOPC   C3A18115   5.889   9.024   5.332
 1571DOPC   C4A18116   5.729   9.194   5.042
 1571DOPC   C1B18117   4.659   8.534   5.962
 1571DOPC   D2B18118   4.159   8.634   5.872
 1571DOPC   C3B18119   3.989   8.244   5.682
 1571DOPC   C4B18120   4.089   8.124   5.222
 1572DOPC   NC318121  23.039  10.334   3.542
 1572DOPC   PO418122  23.079   9.934   3.362
 1572DOPC   GL118123  23.319   9.964   3.772
 1572DOPC   GL218124  23.409  10.214   3.932
 1572DOPC   C1A18125  23.519   9.704   4.142
 1572DOPC   D2A18126  23.719   9.624   4.542
 1572DOPC   C3A18127  23.749   9.994   4.912
 1572DOPC   C4A18128  23.809  10.224   5.332
 1572DOPC   C1B18129  23.489  10.244   4.362
 1572DOPC   D2B18130  23.229   9.754   4.512
 1572DOPC   C3B18131  23.299   9.454   4.892
 1572DOPC   C4B18132  23.109   9.134   5.152
 1573DOPC   NC318133  25.069  23.301   3.942
 1573DOPC   PO418134  25.269  22.861   4.032
 1573DOPC   GL118135  25.219  22.841   4.522
 1573DOPC   GL218136  24.989  23.121   4.442
 1573DOPC   C1A18137  25.289  22.671   4.862
 1573DOPC   D2A18138  25.329  22.541   5.352
 1573DOPC   C3A18139  25.666  22.701   5.552
 1573DOPC   C4A18140  25.776  22.611   5.972
 1573DOPC   C1B18141  25.079  23.231   4.862
 1573DOPC   D2B18142  25.289  23.041   5.212
 1573DOPC   C3B18143  25.766  22.881   5.042
 1573DOPC   C4B18144  25.726  22.611   4.682
 1574DOPC   NC318145   7.609   9.484   3.532
 1574DOPC   PO418146   7.629   9.794   3.822
 1574DOPC   GL118147   7.559  10.004   4.242
 1574DOPC   GL218148   7.329   9.894   4.452
 1574DOPC   C1A18149   7.719   9.944   4.682
 1574DOPC   D2A18150   8.029   9.954   5.062
 1574DOPC   C3A18151   8.579  10.124   5.112
 1574DOPC   C4A18152   8.769  10.394   5.432
 1574DOPC   C1B18153   7.269   9.754   4.822
 1574DOPC   D2B18154   7.009   9.924   5.012
 1574DOPC   C3B18155   6.589   9.864   4.842
 1574DOPC   C4B18156   6.199  10.094   4.722
 1575DOPC   NC318157   2.479  14.194   7.502
 1575DOPC   PO418158   2.029  14.224   7.582
 1575DOPC   GL118159   1.809  13.984   7.252
 1575DOPC   GL218160   1.969  13.964   7.022
 1575DOPC   C1A18161   1.609  13.794   6.742
 1575DOPC   D2A18162   1.759  13.664   6.352
 1575DOPC   C3A18163   1.769  13.344   6.202
 1575DOPC   C4A18164   1.569  13.304   5.702
 1575DOPC   C1B18165   2.219  13.754   6.702
 1575DOPC   D2B18166   2.579  13.444   6.532
 1575DOPC   C3B18167   2.929  13.644   6.252
 1575DOPC   C4B18168   3.039  13.874   5.842
 1576DOPC   NC318169  25.639   4.624   7.032
 1576DOPC   PO418170  25.609   4.944   6.652
 1576DOPC   GL118171  25.589   5.134   6.272
 1576DOPC   GL218172  25.559   5.434   6.252
 1576DOPC   C1A18173  25.786   5.214   5.922
 1576DOPC   D2A18174  25.926   5.384   5.572
 1576DOPC   C3A18175  25.676   5.674   5.532
 1576DOPC   C4A18176  25.756   6.014   5.262
 1576DOPC   C1B18177  25.309   5.564   5.892
 1576DOPC   D2B18178  24.929   5.434   5.622
 1576DOPC   C3B18179  24.469   5.554   5.382
 1576DOPC   C4B18180  24.149   5.374   5.202
 1577DOPC   NC318181   7.199  18.704   4.372
 1577DOPC   PO418182   7.339  18.304   4.612
 1577DOPC   GL118183   7.239  18.244   4.982
 1577DOPC   GL218184   7.059  18.564   5.142
 1577DOPC   C1A18185   7.449  18.394   5.362
 1577DOPC   D2A18186   7.669  18.674   5.312
 1577DOPC   C3A18187   7.689  18.974   5.682
 1577DOPC   C4A18188   7.829  18.944   6.122
 1577DOPC   C1B18189   6.849  18.414   5.512
 1577DOPC   D2B18190   6.649  18.504   5.852
 1577DOPC   C3B18191   6.729  18.324   6.202
 1577DOPC   C4B18192   6.849  17.964   6.372
 1578DOPC   NC318193  22.569   4.584   3.042
 1578DOPC   PO418194  22.519   4.424   3.472
 1578DOPC   GL118195  22.259   4.314   3.842
 1578DOPC   GL218196  22.379   3.994   3.892
 1578DOPC   C1A18197  22.399   4.434   4.252
 1578DOPC   D2A18198  22.229   4.394   4.732
 1578DOPC   C3A18199  22.309   4.184   5.122
 1578DOPC   C4A18200  22.539   4.054   5.382
 1578DOPC   C1B18201  22.349   3.844   4.372
 1578DOPC   D2B18202  22.569   4.054   4.622
 1578DOPC   C3B18203  22.889   4.354   4.552
 1578DOPC   C4B18204  23.129   4.654   4.752
 1579DOPC   NC318205  22.149   5.284   3.582
 1579DOPC   PO418206  21.679   5.144   3.562
 1579DOPC   GL118207  21.529   5.044   3.922
 1579DOPC   GL218208  21.329   5.314   3.992
 1579DOPC   C1A18209  21.729   5.034   4.332
 1579DOPC   D2A18210  21.819   5.084   4.742
 1579DOPC   C3A18211  21.469   5.224   4.982
 1579DOPC   C4A18212  21.619   5.584   5.312
 1579DOPC   C1B18213  21.539   5.584   4.332
 1579DOPC   D2B18214  21.639   5.624   4.722
 1579DOPC   C3B18215  22.109   5.834   4.632
 1579DOPC   C4B18216  22.399   5.934   4.362
 1580DOPC   NC318217   5.419  24.511   3.772
 1580DOPC   PO418218   5.889  24.531   3.772
 1580DOPC   GL118219   5.869  24.601   4.242
 1580DOPC   GL218220   5.609  24.661   4.272
 1580DOPC   C1A18221   5.869  24.541   4.652
 1580DOPC   D2A18222   5.719  24.851   5.072
 1580DOPC   C3A18223   5.849  25.311   4.942
 1580DOPC   C4A18224   5.529  25.651   4.992
 1580DOPC   C1B18225   5.399  24.501   4.752
 1580DOPC   D2B18226   5.579  24.351   5.162
 1580DOPC   C3B18227   5.299  24.271   5.392
 1580DOPC   C4B18228   5.199  24.031   5.732
 1581DOPC   NC318229  24.039  17.184   4.012
 1581DOPC   PO418230  23.779  17.384   3.742
 1581DOPC   GL118231  23.759  17.554   4.212
 1581DOPC   GL218232  23.949  17.444   4.462
 1581DOPC   C1A18233  23.359  17.514   4.512
 1581DOPC   D2A18234  23.259  17.424   4.972
 1581DOPC   C3A18235  23.269  17.704   5.312
 1581DOPC   C4A18236  22.989  17.964   5.272
 1581DOPC   C1B18237  24.299  17.594   4.652
 1581DOPC   D2B18238  24.359  17.804   4.992
 1581DOPC   C3B18239  24.169  18.064   5.132
 1581DOPC   C4B18240  24.069  17.964   5.552
 1582DOPC   NC318241  20.519   0.994   7.682
 1582DOPC   PO418242  20.169   1.364   7.572
 1582DOPC   GL118243  20.109   1.114   7.182
 1582DOPC   GL218244  20.049   1.134   6.872
 1582DOPC   C1A18245  20.259   0.654   7.002
 1582DOPC   D2A18246  20.229   0.604   6.602
 1582DOPC   C3A18247  20.509   0.444   6.312
 1582DOPC   C4A18248  20.599   0.084   6.052
 1582DOPC   C1B18249  19.899   0.944   6.562
 1582DOPC   D2B18250  19.819   1.124   6.132
 1582DOPC   C3B18251  20.149   1.244   5.802
 1582DOPC   C4B18252  20.499   1.294   5.522
 1583DOPC   NC318253   7.249  16.914   3.792
 1583DOPC   PO418254   7.369  16.784   4.172
 1583DOPC   GL118255   7.539  16.844   4.672
 1583DOPC   GL218256   7.239  16.754   4.802
 1583DOPC   C1A18257   7.839  16.874   5.012
 1583DOPC   D2A18258   7.939  16.864   5.422
 1583DOPC   C3A18259   7.749  16.644   5.692
 1583DOPC   C4A18260   7.509  16.184   5.632
 1583DOPC   C1B18261   7.009  17.024   5.072
 1583DOPC   D2B18262   6.969  17.384   5.382
 1583DOPC   C3B18263   6.869  17.824   5.352
 1583DOPC   C4B18264   6.629  18.104   5.152
 1584DOPC   NC318265   0.559   4.604   6.752
 1584DOPC   PO418266   0.449   4.924   6.972
 1584DOPC   GL118267   0.459   5.044   6.442
 1584DOPC   GL218268   0.459   5.364   6.342
 1584DOPC   C1A18269   0.599   4.904   6.062
 1584DOPC   D2A18270   0.829   4.674   5.842
 1584DOPC   C3A18271   1.169   4.834   5.652
 1584DOPC   C4A18272   1.529   4.724   5.582
 1584DOPC   C1B18273   0.709   5.444   5.972
 1584DOPC   D2B18274   0.699   5.084   5.602
 1584DOPC   C3B18275   0.239   4.924   5.512
 1584DOPC   C4B18276   0.011   4.814   5.272
 1585DOPC   NC318277  21.799   8.284   3.462
 1585DOPC   PO418278  21.499   8.624   3.492
 1585DOPC   GL118279  21.649   8.874   3.782
 1585DOPC   GL218280  21.339   9.044   3.852
 1585DOPC   C1A18281  21.839   9.214   4.062
 1585DOPC   D2A18282  21.989   9.584   4.302
 1585DOPC   C3A18283  21.879   9.724   4.562
 1585DOPC   C4A18284  22.089   9.954   4.832
 1585DOPC   C1B18285  21.339   8.974   4.262
 1585DOPC   D2B18286  21.459   8.824   4.612
 1585DOPC   C3B18287  21.909   8.724   4.842
 1585DOPC   C4B18288  22.209   9.014   5.072
 1586DOPC   NC318289  19.139  19.624   7.132
 1586DOPC   PO418290  19.629  19.634   7.162
 1586DOPC   GL118291  19.599  19.544   6.782
 1586DOPC   GL218292  19.649  19.294   6.702
 1586DOPC   C1A18293  19.679  19.814   6.502
 1586DOPC   D2A18294  19.849  19.904   6.042
 1586DOPC   C3A18295  19.579  20.204   5.802
 1586DOPC   C4A18296  19.799  20.544   5.572
 1586DOPC   C1B18297  19.549  19.104   6.332
 1586DOPC   D2B18298  19.629  18.824   5.982
 1586DOPC   C3B18299  19.619  18.884   5.602
 1586DOPC   C4B18300  19.619  18.734   5.162
 1587DOPC   NC318301   8.519   6.694   3.972
 1587DOPC   PO418302   8.079   6.674   3.982
 1587DOPC   GL118303   7.849   6.574   4.362
 1587DOPC   GL218304   7.539   6.434   4.332
 1587DOPC   C1A18305   7.839   6.524   4.882
 1587DOPC   D2A18306   8.079   6.714   5.152
 1587DOPC   C3A18307   8.209   6.464   5.472
 1587DOPC   C4A18308   7.829   6.354   5.672
 1587DOPC   C1B18309   7.159   6.214   4.382
 1587DOPC   D2B18310   7.069   6.104   4.842
 1587DOPC   C3B18311   7.239   5.904   5.092
 1587DOPC   C4B18312   7.469   5.524   5.342
 1588DOPC   NC318313  10.919  10.214   8.652
 1588DOPC   PO418314  10.879  10.594   8.622
 1588DOPC   GL118315  10.669  10.764   8.322
 1588DOPC   GL218316  10.419  10.794   8.242
 1588DOPC   C1A18317  10.889  10.994   7.952
 1588DOPC   D2A18318  11.239  10.834   7.842
 1588DOPC   C3A18319  11.459  10.524   7.962
 1588DOPC   C4A18320  11.859  10.374   7.692
 1588DOPC   C1B18321  10.409  10.834   7.762
 1588DOPC   D2B18322  10.249  10.984   7.302
 1588DOPC   C3B18323  10.519  10.704   7.042
 1588DOPC   C4B18324  10.469  10.344   6.722
 1589DOPC   NC318325  23.849  19.844   7.682
 1589DOPC   PO418326  24.169  19.604   7.562
 1589DOPC   GL118327  24.249  19.544   7.122
 1589DOPC   GL218328  24.619  19.604   6.952
 1589DOPC   C1A18329  24.039  19.574   6.722
 1589DOPC   D2A18330  23.899  19.414   6.392
 1589DOPC   C3A18331  24.129  19.464   6.002
 1589DOPC   C4A18332  24.079  19.834   5.682
 1589DOPC   C1B18333  24.399  19.934   6.722
 1589DOPC   D2B18334  24.129  20.224   6.692
 1589DOPC   C3B18335  23.919  20.414   6.452
 1589DOPC   C4B18336  23.739  20.644   6.182
 1590DOPC   NC318337   4.559  10.044   3.412
 1590DOPC   PO418338   4.959  10.124   3.452
 1590DOPC   GL118339   4.989   9.974   3.892
 1590DOPC   GL218340   4.899   9.754   4.142
 1590DOPC   C1A18341   5.269  10.214   4.282
 1590DOPC   D2A18342   5.389  10.184   4.562
 1590DOPC   C3A18343   5.189  10.034   4.852
 1590DOPC   C4A18344   4.809   9.984   5.002
 1590DOPC   C1B18345   4.769  10.084   4.462
 1590DOPC   D2B18346   4.469  10.484   4.502
 1590DOPC   C3B18347   4.309  10.354   4.802
 1590DOPC   C4B18348   4.239   9.954   5.102
 1591DOPC   NC318349   0.899  18.154   3.752
 1591DOPC   PO418350   0.439  17.864   3.752
 1591DOPC   GL118351   0.299  17.704   4.152
 1591DOPC   GL218352   0.479  17.404   4.372
 1591DOPC   C1A18353   0.479  17.884   4.552
 1591DOPC   D2A18354   0.279  17.834   5.002
 1591DOPC   C3A18355   0.379  18.194   5.242
 1591DOPC   C4A18356   0.389  18.314   5.592
 1591DOPC   C1B18357   0.669  17.524   4.842
 1591DOPC   D2B18358   0.879  17.804   5.072
 1591DOPC   C3B18359   1.019  17.634   5.362
 1591DOPC   C4B18360   1.399  17.764   5.502
 1592DOPC   NC318361   4.979   9.214   3.092
 1592DOPC   PO418362   5.209   8.774   3.142
 1592DOPC   GL118363   4.869   8.854   3.482
 1592DOPC   GL218364   4.649   8.644   3.612
 1592DOPC   C1A18365   4.959   8.894   3.902
 1592DOPC   D2A18366   4.959   8.884   4.402
 1592DOPC   C3A18367   4.759   8.854   4.722
 1592DOPC   C4A18368   4.799   9.044   5.092
 1592DOPC   C1B18369   4.749   8.384   3.932
 1592DOPC   D2B18370   4.799   8.254   4.362
 1592DOPC   C3B18371   4.809   8.364   4.742
 1592DOPC   C4B18372   4.579   8.514   5.022
 1593DOPC   NC318373   9.829  21.391   4.842
 1593DOPC   PO418374  10.149  21.094   4.722
 1593DOPC   GL118375  10.279  21.274   5.092
 1593DOPC   GL218376  10.349  21.691   5.252
 1593DOPC   C1A18377  10.369  21.154   5.572
 1593DOPC   D2A18378  10.179  20.904   5.932
 1593DOPC   C3A18379  10.359  20.864   6.332
 1593DOPC   C4A18380  10.399  21.044   6.742
 1593DOPC   C1B18381  10.069  21.641   5.432
 1593DOPC   D2B18382   9.869  21.204   5.652
 1593DOPC   C3B18383   9.929  20.794   5.482
 1593DOPC   C4B18384   9.649  20.434   5.502
 1594DOPC   NC318385   8.429  16.774   4.252
 1594DOPC   PO418386   8.669  17.094   4.102
 1594DOPC   GL118387   8.629  17.274   4.542
 1594DOPC   GL218388   8.409  17.404   4.702
 1594DOPC   C1A18389   8.829  17.384   4.982
 1594DOPC   D2A18390   8.989  17.234   5.332
 1594DOPC   C3A18391   9.029  17.554   5.652
 1594DOPC   C4A18392   8.859  17.704   6.072
 1594DOPC   C1B18393   8.289  17.144   5.142
 1594DOPC   D2B18394   8.559  16.964   5.392
 1594DOPC   C3B18395   8.999  16.824   5.102
 1594DOPC   C4B18396   9.239  16.974   4.822
 1595DOPC   NC318397   2.289  13.704   7.362
 1595DOPC   PO418398   2.759  13.724   7.422
 1595DOPC   GL118399   3.089  13.654   7.072
 1595DOPC   GL218400   3.239  13.944   7.012
 1595DOPC   C1A18401   3.069  13.454   6.802
 1595DOPC   D2A18402   3.319  13.384   6.492
 1595DOPC   C3A18403   3.099  13.224   6.112
 1595DOPC   C4A18404   2.659  13.344   5.912
 1595DOPC   C1B18405   3.279  13.914   6.562
 1595DOPC   D2B18406   3.389  14.014   6.152
 1595DOPC   C3B18407   3.339  14.314   5.952
 1595DOPC   C4B18408   3.309  14.504   5.582
 1596DOPC   NC318409  15.859  25.661   4.092
 1596DOPC   PO418410  15.559  25.381   4.352
 1596DOPC   GL118411  15.919  25.401   4.662
 1596DOPC   GL218412  16.139  25.661   4.642
 1596DOPC   C1A18413  16.019  25.371   5.052
 1596DOPC   D2A18414  16.189  25.451   5.432
 1596DOPC   C3A18415  16.529  25.751   5.432
 1596DOPC   C4A18416  16.949  25.801   5.452
 1596DOPC   C1B18417  16.489  25.471   4.902
 1596DOPC   D2B18418  16.649  25.241   5.322
 1596DOPC   C3B18419  17.099  25.291   5.512
 1596DOPC   C4B18420  17.379  25.021   5.622
 1597DOPC   NC318421   1.519  24.631   7.432
 1597DOPC   PO418422   1.989  24.841   7.482
 1597DOPC   GL118423   1.969  24.701   7.142
 1597DOPC   GL218424   1.929  24.311   7.302
 1597DOPC   C1A18425   1.879  24.541   6.732
 1597DOPC   D2A18426   1.629  24.291   6.482
 1597DOPC   C3A18427   1.439  24.361   6.072
 1597DOPC   C4A18428   1.619  24.731   5.782
 1597DOPC   C1B18429   1.969  24.081   6.892
 1597DOPC   D2B18430   2.189  24.171   6.532
 1597DOPC   C3B18431   2.359  24.011   6.092
 1597DOPC   C4B18432   2.199  24.101   5.622
 1598DOPC   NC318433  23.699   9.884   7.302
 1598DOPC   PO418434  24.029   9.974   7.022
 1598DOPC   GL118435  23.979  10.334   6.632
 1598DOPC   GL218436  23.799  10.734   6.762
 1598DOPC   C1A18437  23.719  10.434   6.252
 1598DOPC   D2A18438  23.649  10.364   5.842
 1598DOPC   C3A18439  23.429  10.024   5.722
 1598DOPC   C4A18440  23.559   9.664   5.662
 1598DOPC   C1B18441  23.899  10.884   6.392
 1598DOPC   D2B18442  23.899  11.204   6.182
 1598DOPC   C3B18443  23.759  11.584   6.382
 1598DOPC   C4B18444  23.649  11.874   6.582
 1599DOPC   NC318445   2.009   8.074   2.188
 1599DOPC   PO418446   2.279   7.804   2.532
 1599DOPC   GL118447   2.459   7.914   2.902
 1599DOPC   GL218448   2.209   7.874   3.152
 1599DOPC   C1A18449   2.649   7.864   3.342
 1599DOPC   D2A18450   2.749   7.964   3.742
 1599DOPC   C3A18451   2.599   8.374   3.782
 1599DOPC   C4A18452   2.529   8.284   4.212
 1599DOPC   C1B18453   2.129   8.074   3.582
 1599DOPC   D2B18454   2.039   8.444   3.912
 1599DOPC   C3B18455   2.009   8.324   4.352
 1599DOPC   C4B18456   1.679   8.274   4.602
 1600DOPC   NC318457   5.759  14.234   8.032
 1600DOPC   PO418458   5.829  13.974   7.702
 1600DOPC   GL118459   6.009  14.184   7.362
 1600DOPC   GL218460   6.369  14.024   7.322
 1600DOPC   C1A18461   6.029  14.234   6.942
 1600DOPC   D2A18462   6.109  14.174   6.512
 1600DOPC   C3A18463   6.359  14.524   6.192
 1600DOPC   C4A18464   6.669  14.504   5.952
 1600DOPC   C1B18465   6.679  13.964   6.982
 1600DOPC   D2B18466   7.139  14.044   6.812
 1600DOPC   C3B18467   7.199  14.094   6.342
 1600DOPC   C4B18468   7.539  14.254   6.112
 1601DOPC   NC318469  16.749   7.854   8.372
 1601DOPC   PO418470  16.569   7.544   8.182
 1601DOPC   GL118471  16.559   7.804   7.762
 1601DOPC   GL218472  16.089   7.634   7.882
 1601DOPC   C1A18473  16.629   7.994   7.352
 1601DOPC   D2A18474  16.979   8.014   7.312
 1601DOPC   C3A18475  17.219   8.034   6.922
 1601DOPC   C4A18476  17.469   7.924   6.512
 1601DOPC   C1B18477  16.109   7.254   7.642
 1601DOPC   D2B18478  16.189   6.994   7.272
 1601DOPC   C3B18479  16.119   7.174   6.882
 1601DOPC   C4B18480  16.049   7.584   6.632
 1602DOPC   NC318481  19.679  18.894   7.022
 1602DOPC   PO418482  19.309  19.104   7.022
 1602DOPC   GL118483  19.089  19.314   6.702
 1602DOPC   GL218484  18.899  19.174   6.732
 1602DOPC   C1A18485  19.259  19.554   6.452
 1602DOPC   D2A18486  19.259  19.764   6.032
 1602DOPC   C3A18487  18.999  19.564   5.662
 1602DOPC   C4A18488  18.899  19.314   5.282
 1602DOPC   C1B18489  19.089  19.024   6.282
 1602DOPC   D2B18490  19.349  19.264   5.922
 1602DOPC   C3B18491  19.739  19.384   5.922
 1602DOPC   C4B18492  20.189  19.604   5.822
 1603DOPC   NC318493   7.229   5.264   7.262
 1603DOPC   PO418494   7.529   5.324   7.542
 1603DOPC   GL118495   7.709   5.414   7.172
 1603DOPC   GL218496   7.819   5.724   7.132
 1603DOPC   C1A18497   7.859   5.184   6.812
 1603DOPC   D2A18498   7.599   5.004   6.502
 1603DOPC   C3A18499   7.919   4.884   6.202
 1603DOPC   C4A18500   8.319   4.594   6.282
 1603DOPC   C1B18501   7.599   5.624   6.712
 1603DOPC   D2B18502   7.549   5.524   6.362
 1603DOPC   C3B18503   7.719   5.864   6.102
 1603DOPC   C4B18504   7.939   6.274   6.222
 1604DOPC   NC318505  19.239  18.734   2.782
 1604DOPC   PO418506  19.239  18.944   3.262
 1604DOPC   GL118507  19.129  19.014   3.722
 1604DOPC   GL218508  19.339  18.714   4.012
 1604DOPC   C1A18509  19.039  19.214   4.112
 1604DOPC   D2A18510  19.039  18.904   4.402
 1604DOPC   C3A18511  19.279  18.544   4.652
 1604DOPC   C4A18512  19.539  18.194   4.502
 1604DOPC   C1B18513  19.029  18.304   4.212
 1604DOPC   D2B18514  18.959  18.194   4.672
 1604DOPC   C3B18515  19.269  17.994   4.882
 1604DOPC   C4B18516  19.599  18.224   5.232
 1605DOPC   NC318517  14.869  20.154   4.152
 1605DOPC   PO418518  14.799  20.584   4.302
 1605DOPC   GL118519  15.019  20.724   4.642
 1605DOPC   GL218520  14.819  20.634   4.852
 1605DOPC   C1A18521  15.269  20.934   4.922
 1605DOPC   D2A18522  15.409  21.274   5.152
 1605DOPC   C3A18523  15.479  21.264   5.512
 1605DOPC   C4A18524  15.189  21.314   5.782
 1605DOPC   C1B18525  14.729  20.734   5.172
 1605DOPC   D2B18526  14.919  20.554   5.592
 1605DOPC   C3B18527  15.059  20.814   5.842
 1605DOPC   C4B18528  15.329  20.934   6.022
 1606DOPC   NC318529   0.689  23.151   7.462
 1606DOPC   PO418530   0.759  22.831   7.182
 1606DOPC   GL118531   0.599  22.821   6.772
 1606DOPC   GL218532   0.289  22.931   6.802
 1606DOPC   C1A18533   0.649  23.011   6.352
 1606DOPC   D2A18534   0.479  23.361   6.132
 1606DOPC   C3A18535   0.609  23.521   5.732
 1606DOPC   C4A18536   0.679  23.431   5.312
 1606DOPC   C1B18537   0.139  23.151   6.472
 1606DOPC   D2B18538  -0.069  23.141   5.992
 1606DOPC   C3B18539  -0.479  22.971   5.782
 1606DOPC   C4B18540  -0.829  23.211   5.722
 1607DOPC   NC318541   2.489   9.794   7.842
 1607DOPC   PO418542   2.819   9.844   7.342
 1607DOPC   GL118543   2.889   9.694   6.912
 1607DOPC   GL218544   2.889   9.354   6.832
 1607DOPC   C1A18545   2.879   9.914   6.562
 1607DOPC   D2A18546   2.709   9.984   6.152
 1607DOPC   C3A18547   2.939   9.804   5.742
 1607DOPC   C4A18548   3.129   9.434   5.502
 1607DOPC   C1B18549   2.879   9.404   6.392
 1607DOPC   D2B18550   2.539   9.504   6.052
 1607DOPC   C3B18551   2.569   9.434   5.652
 1607DOPC   C4B18552   2.429   9.454   5.262
 1608DOPC   NC318553  17.549  10.184   4.212
 1608DOPC   PO418554  17.199  10.424   4.162
 1608DOPC   GL118555  17.269  10.554   4.602
 1608DOPC   GL218556  17.359  10.844   4.842
 1608DOPC   C1A18557  17.009  10.404   4.942
 1608DOPC   D2A18558  16.939  10.244   5.392
 1608DOPC   C3A18559  16.799  10.544   5.692
 1608DOPC   C4A18560  16.639  10.644   6.182
 1608DOPC   C1B18561  17.529  11.014   5.222
 1608DOPC   D2B18562  17.589  11.354   5.502
 1608DOPC   C3B18563  17.849  11.314   5.892
 1608DOPC   C4B18564  17.869  10.934   6.212
 1609DOPC   NC318565   1.139  15.054   3.672
 1609DOPC   PO418566   0.689  14.914   3.822
 1609DOPC   GL118567   0.869  15.134   4.122
 1609DOPC   GL218568   1.089  14.914   4.212
 1609DOPC   C1A18569   0.609  15.334   4.492
 1609DOPC   D2A18570   0.379  15.464   4.812
 1609DOPC   C3A18571   0.329  15.234   5.072
 1609DOPC   C4A18572   0.549  15.154   5.472
 1609DOPC   C1B18573   1.099  14.914   4.582
 1609DOPC   D2B18574   0.839  14.704   4.792
 1609DOPC   C3B18575   0.389  14.854   4.642
 1609DOPC   C4B18576   0.031  15.124   4.542
 1610DOPC   NC318577  13.769  19.194   4.372
 1610DOPC   PO418578  13.609  19.094   4.852
 1610DOPC   GL118579  13.549  19.294   5.242
 1610DOPC   GL218580  13.789  19.364   5.282
 1610DOPC   C1A18581  13.249  19.134   5.482
 1610DOPC   D2A18582  13.019  19.034   5.832
 1610DOPC   C3A18583  13.189  18.954   6.222
 1610DOPC   C4A18584  13.449  18.564   6.422
 1610DOPC   C1B18585  13.799  19.054   5.702
 1610DOPC   D2B18586  13.789  18.974   6.102
 1610DOPC   C3B18587  13.619  19.024   6.502
 1610DOPC   C4B18588  13.289  18.944   6.732
 1611DOPC   NC318589  10.019  13.374   4.552
 1611DOPC   PO418590  10.089  13.674   4.802
 1611DOPC   GL118591  10.219  13.754   5.222
 1611DOPC   GL218592   9.999  14.004   5.312
 1611DOPC   C1A18593  10.069  13.624   5.612
 1611DOPC   D2A18594   9.779  13.704   6.072
 1611DOPC   C3A18595   9.829  14.044   6.392
 1611DOPC   C4A18596   9.659  14.424   6.632
 1611DOPC   C1B18597  10.009  14.144   5.642
 1611DOPC   D2B18598   9.999  14.274   5.992
 1611DOPC   C3B18599  10.389  14.224   6.312
 1611DOPC   C4B18600  10.659  13.904   6.542
 1612DOPC   NC318601   7.729  21.064   8.242
 1612DOPC   PO418602   7.499  21.294   8.072
 1612DOPC   GL118603   7.739  21.381   7.712
 1612DOPC   GL218604   7.539  21.304   7.432
 1612DOPC   C1A18605   8.139  21.154   7.582
 1612DOPC   D2A18606   8.479  20.984   7.272
 1612DOPC   C3A18607   8.749  21.164   7.032
 1612DOPC   C4A18608   8.839  21.274   6.712
 1612DOPC   C1B18609   7.529  21.751   7.272
 1612DOPC   D2B18610   7.899  21.891   7.032
 1612DOPC   C3B18611   8.029  22.131   6.702
 1612DOPC   C4B18612   7.619  22.211   6.372
 1613DOPC   NC318613  21.669  19.884   3.842
 1613DOPC   PO418614  21.359  19.574   3.842
 1613DOPC   GL118615  21.569  19.484   4.172
 1613DOPC   GL218616  21.509  19.194   4.122
 1613DOPC   C1A18617  21.679  19.544   4.542
 1613DOPC   D2A18618  21.529  19.444   4.952
 1613DOPC   C3A18619  21.109  19.504   5.092
 1613DOPC   C4A18620  20.779  19.664   5.402
 1613DOPC   C1B18621  21.569  19.044   4.602
 1613DOPC   D2B18622  21.749  18.954   4.942
 1613DOPC   C3B18623  21.439  18.974   5.212
 1613DOPC   C4B18624  21.219  18.874   5.562
 1614DOPC   NC318625   0.749  16.114   7.832
 1614DOPC   PO418626   0.789  15.964   7.532
 1614DOPC   GL118627   0.899  15.744   7.142
 1614DOPC   GL218628   0.869  15.804   6.792
 1614DOPC   C1A18629   1.119  15.354   6.922
 1614DOPC   D2A18630   1.269  15.094   6.582
 1614DOPC   C3A18631   1.159  14.674   6.542
 1614DOPC   C4A18632   1.029  14.304   6.382
 1614DOPC   C1B18633   1.039  15.564   6.412
 1614DOPC   D2B18634   1.319  15.424   6.062
 1614DOPC   C3B18635   1.479  15.074   5.842
 1614DOPC   C4B18636   1.319  14.904   5.522
 1615DOPC   NC318637  13.939  24.751   3.702
 1615DOPC   PO418638  13.809  24.861   4.112
 1615DOPC   GL118639  13.719  24.771   4.582
 1615DOPC   GL218640  13.719  25.031   4.792
 1615DOPC   C1A18641  13.899  24.711   5.062
 1615DOPC   D2A18642  14.119  24.891   5.452
 1615DOPC   C3A18643  14.039  24.771   5.922
 1615DOPC   C4A18644  13.899  24.931   6.232
 1615DOPC   C1B18645  13.419  24.941   5.142
 1615DOPC   D2B18646  13.349  24.931   5.552
 1615DOPC   C3B18647  13.299  25.361   5.542
 1615DOPC   C4B18648  13.049  25.601   5.832
 1616DOPC   NC318649   2.759  23.311   3.722
 1616DOPC   PO418650   2.699  22.861   3.992
 1616DOPC   GL118651   2.949  23.001   4.362
 1616DOPC   GL218652   2.879  23.311   4.262
 1616DOPC   C1A18653   2.719  22.981   4.672
 1616DOPC   D2A18654   2.519  23.311   4.982
 1616DOPC   C3A18655   2.279  23.141   5.422
 1616DOPC   C4A18656   1.819  23.181   5.552
 1616DOPC   C1B18657   3.279  23.331   4.582
 1616DOPC   D2B18658   3.459  23.471   4.912
 1616DOPC   C3B18659   3.329  23.881   5.112
 1616DOPC   C4B18660   3.309  24.221   4.862
 1617DOPC   NC318661   1.259   2.044   3.012
 1617DOPC   PO418662   0.849   1.874   3.272
 1617DOPC   GL118663   0.989   1.864   3.692
 1617DOPC   GL218664   0.669   1.994   3.932
 1617DOPC   C1A18665   1.149   1.984   4.122
 1617DOPC   D2A18666   1.299   1.954   4.522
 1617DOPC   C3A18667   0.889   2.074   4.872
 1617DOPC   C4A18668   0.749   1.874   5.152
 1617DOPC   C1B18669   0.719   1.984   4.412
 1617DOPC   D2B18670   0.939   1.574   4.532
 1617DOPC   C3B18671   1.199   1.704   4.942
 1617DOPC   C4B18672   1.549   1.634   5.202
 1618DOPC   NC318673  17.839   8.794   8.482
 1618DOPC   PO418674  17.709   8.714   8.052
 1618DOPC   GL118675  17.639   9.094   7.752
 1618DOPC   GL218676  17.309   9.194   7.642
 1618DOPC   C1A18677  17.559   9.044   7.232
 1618DOPC   D2A18678  17.649   9.294   6.922
 1618DOPC   C3A18679  17.539   9.224   6.592
 1618DOPC   C4A18680  17.439   8.864   6.262
 1618DOPC   C1B18681  17.299   9.494   7.282
 1618DOPC   D2B18682  16.879   9.754   7.282
 1618DOPC   C3B18683  16.749   9.874   6.872
 1618DOPC   C4B18684  16.469   9.814   6.502
 1619DOPC   NC318685  14.969  24.211   4.282
 1619DOPC   PO418686  14.579  24.161   4.142
 1619DOPC   GL118687  14.589  24.161   4.612
 1619DOPC   GL218688  14.679  23.941   4.722
 1619DOPC   C1A18689  14.969  24.321   4.962
 1619DOPC   D2A18690  14.939  24.211   5.472
 1619DOPC   C3A18691  14.719  24.131   5.742
 1619DOPC   C4A18692  14.609  24.071   6.182
 1619DOPC   C1B18693  14.599  24.051   5.112
 1619DOPC   D2B18694  14.569  23.811   5.382
 1619DOPC   C3B18695  14.199  23.931   5.742
 1619DOPC   C4B18696  14.019  23.811   6.172
 1620DOPC   NC318697   7.579   4.274   3.852
 1620DOPC   PO418698   7.099   4.054   3.862
 1620DOPC   GL118699   7.229   4.084   4.312
 1620DOPC   GL218700   7.209   3.724   4.462
 1620DOPC   C1A18701   7.059   4.124   4.772
 1620DOPC   D2A18702   6.959   4.364   5.162
 1620DOPC   C3A18703   6.719   4.164   5.492
 1620DOPC   C4A18704   6.659   3.884   5.802
 1620DOPC   C1B18705   7.329   3.724   4.822
 1620DOPC   D2B18706   7.249   3.994   5.232
 1620DOPC   C3B18707   7.069   3.684   5.602
 1620DOPC   C4B18708   7.059   3.204   5.632
 1621DOPC   NC318709  13.609  18.714   8.492
 1621DOPC   PO418710  13.269  18.484   8.342
 1621DOPC   GL118711  13.059  18.684   8.042
 1621DOPC   GL218712  12.779  18.784   8.032
 1621DOPC   C1A18713  13.069  18.734   7.642
 1621DOPC   D2A18714  13.179  18.744   7.192
 1621DOPC   C3A18715  13.269  18.444   6.892
 1621DOPC   C4A18716  13.529  18.174   6.812
 1621DOPC   C1B18717  12.549  19.004   7.712
 1621DOPC   D2B18718  12.299  19.154   7.402
 1621DOPC   C3B18719  12.039  18.844   7.152
 1621DOPC   C4B18720  11.799  18.704   6.772
 1622DOPC   NC318721  25.559  15.364   3.842
 1622DOPC   PO418722  25.519  15.764   3.812
 1622DOPC   GL118723  25.409  15.954   4.262
 1622DOPC   GL218724  25.159  15.734   4.452
 1622DOPC   C1A18725  25.646  15.914   4.662
 1622DOPC   D2A18726  25.489  15.884   5.102
 1622DOPC   C3A18727  25.309  16.094   5.402
 1622DOPC   C4A18728  24.899  16.134   5.582
 1622DOPC   C1B18729  25.319  15.514   4.802
 1622DOPC   D2B18730  25.459  15.234   5.112
 1622DOPC   C3B18731  25.676  15.284   5.522
 1622DOPC   C4B18732  25.706  15.174   5.872
 1623DOPC   NC318733   1.659  19.664   7.522
 1623DOPC   PO418734   1.949  19.404   7.472
 1623DOPC   GL118735   1.829  19.284   7.072
 1623DOPC   GL218736   2.119  19.514   7.022
 1623DOPC   C1A18737   1.519  19.454   6.692
 1623DOPC   D2A18738   1.499  19.524   6.222
 1623DOPC   C3A18739   1.159  19.314   5.912
 1623DOPC   C4A18740   1.079  18.934   5.702
 1623DOPC   C1B18741   2.019  19.624   6.662
 1623DOPC   D2B18742   2.089  19.474   6.262
 1623DOPC   C3B18743   2.209  19.744   5.902
 1623DOPC   C4B18744   1.979  19.934   5.702
 1624DOPC   NC318745  20.509  12.984   3.702
 1624DOPC   PO418746  20.929  13.134   3.692
 1624DOPC   GL118747  20.809  13.124   4.072
 1624DOPC   GL218748  20.549  13.334   4.092
 1624DOPC   C1A18749  20.799  12.864   4.352
 1624DOPC   D2A18750  20.979  12.624   4.482
 1624DOPC   C3A18751  20.859  12.644   4.962
 1624DOPC   C4A18752  20.839  12.374   5.302
 1624DOPC   C1B18753  20.359  13.614   4.372
 1624DOPC   D2B18754  19.979  13.774   4.632
 1624DOPC   C3B18755  19.859  14.134   4.732
 1624DOPC   C4B18756  19.629  14.224   5.212
 1625DOPC   NC318757   3.819  25.071   3.712
 1625DOPC   PO418758   4.019  24.681   3.622
 1625DOPC   GL118759   4.299  24.711   3.912
 1625DOPC   GL218760   4.239  24.481   4.102
 1625DOPC   C1A18761   4.529  24.951   4.302
 1625DOPC   D2A18762   4.499  24.741   4.682
 1625DOPC   C3A18763   4.549  24.871   5.082
 1625DOPC   C4A18764   4.819  24.921   5.512
 1625DOPC   C1B18765   4.249  24.331   4.572
 1625DOPC   D2B18766   4.239  24.471   5.012
 1625DOPC   C3B18767   4.599  24.381   5.142
 1625DOPC   C4B18768   4.949  24.061   5.052
 1626DOPC   NC318769  10.119   0.484   8.072
 1626DOPC   PO418770  10.349   0.114   8.072
 1626DOPC   GL118771  10.319   0.034   7.632
 1626DOPC   GL218772  10.579  -0.186   7.492
 1626DOPC   C1A18773  10.309   0.144   7.232
 1626DOPC   D2A18774  10.469   0.264   6.872
 1626DOPC   C3A18775  10.269   0.654   6.512
 1626DOPC   C4A18776   9.999   0.974   6.422
 1626DOPC   C1B18777  10.689  -0.126   7.032
 1626DOPC   D2B18778  10.829  -0.216   6.592
 1626DOPC   C3B18779  10.929   0.144   6.312
 1626DOPC   C4B18780  11.129   0.504   6.232
 1627DOPC   NC318781  14.659   2.354   4.502
 1627DOPC   PO418782  15.089   2.524   4.402
 1627DOPC   GL118783  15.039   2.594   4.772
 1627DOPC   GL218784  15.239   2.854   4.862
 1627DOPC   C1A18785  15.059   2.544   5.222
 1627DOPC   D2A18786  14.829   2.694   5.492
 1627DOPC   C3A18787  14.809   2.514   5.932
 1627DOPC   C4A18788  14.459   2.424   6.082
 1627DOPC   C1B18789  15.529   2.664   5.042
 1627DOPC   D2B18790  15.589   2.434   5.302
 1627DOPC   C3B18791  15.639   1.964   5.352
 1627DOPC   C4B18792  15.899   1.524   5.422
 1628DOPC   NC318793  -0.409   5.784   6.892
 1628DOPC   PO418794  -0.029   5.944   6.732
 1628DOPC   GL118795   0.119   5.914   6.352
 1628DOPC   GL218796  -0.099   6.094   6.102
 1628DOPC   C1A18797   0.309   5.844   5.952
 1628DOPC   D2A18798   0.529   6.014   5.572
 1628DOPC   C3A18799   0.669   5.644   5.292
 1628DOPC   C4A18800   0.859   5.594   4.852
 1628DOPC   C1B18801  -0.149   6.524   6.022
 1628DOPC   D2B18802  -0.289   6.884   5.862
 1628DOPC   C3B18803  -0.169   7.164   5.452
 1628DOPC   C4B18804  -0.079   7.314   5.132
 1629DOPC   NC318805  14.199  17.294   8.432
 1629DOPC   PO418806  14.619  17.464   8.432
 1629DOPC   GL118807  14.489  17.564   8.122
 1629DOPC   GL218808  14.089  17.574   8.022
 1629DOPC   C1A18809  14.639  17.544   7.692
 1629DOPC   D2A18810  14.719  17.114   7.622
 1629DOPC   C3A18811  14.609  17.014   7.252
 1629DOPC   C4A18812  14.699  17.164   6.912
 1629DOPC   C1B18813  14.179  17.764   7.652
 1629DOPC   D2B18814  14.339  18.164   7.632
 1629DOPC   C3B18815  14.709  18.044   7.492
 1629DOPC   C4B18816  15.079  17.974   7.192
 1630DOPC   NC318817  12.819   1.504   8.112
 1630DOPC   PO418818  13.289   1.444   8.002
 1630DOPC   GL118819  12.999   1.244   7.682
 1630DOPC   GL218820  13.019   1.204   7.292
 1630DOPC   C1A18821  12.669   1.454   7.442
 1630DOPC   D2A18822  12.839   1.774   7.162
 1630DOPC   C3A18823  12.929   1.674   6.712
 1630DOPC   C4A18824  13.229   1.604   6.332
 1630DOPC   C1B18825  13.129   0.864   7.112
 1630DOPC   D2B18826  13.239   0.594   6.732
 1630DOPC   C3B18827  13.089   0.364   6.332
 1630DOPC   C4B18828  12.939  -0.036   6.292
 1631DOPC   NC318829  14.959  17.834   8.382
 1631DOPC   PO418830  14.709  18.154   8.402
 1631DOPC   GL118831  14.609  18.404   8.122
 1631DOPC   GL218832  14.319  18.524   8.092
 1631DOPC   C1A18833  14.699  18.454   7.772
 1631DOPC   D2A18834  14.779  18.504   7.312
 1631DOPC   C3A18835  15.009  18.404   6.952
 1631DOPC   C4A18836  15.319  18.494   6.642
 1631DOPC   C1B18837  14.019  18.544   7.642
 1631DOPC   D2B18838  14.119  18.424   7.222
 1631DOPC   C3B18839  14.469  18.224   7.102
 1631DOPC   C4B18840  14.749  18.004   6.842
 1632DOPC   NC318841  11.459  12.134   5.962
 1632DOPC   PO418842  11.639  11.734   5.942
 1632DOPC   GL118843  11.709  11.434   6.262
 1632DOPC   GL218844  12.049  11.404   6.312
 1632DOPC   C1A18845  11.669  11.264   6.542
 1632DOPC   D2A18846  11.389  11.244   6.972
 1632DOPC   C3A18847  10.939  11.394   6.922
 1632DOPC   C4A18848  10.629  11.594   6.972
 1632DOPC   C1B18849  11.939  11.634   6.672
 1632DOPC   D2B18850  11.939  12.044   6.792
 1632DOPC   C3B18851  11.679  12.194   7.072
 1632DOPC   C4B18852  11.619  12.044   7.462
 1633DOPC   NC318853  21.189  22.021   3.232
 1633DOPC   PO418854  21.149  21.571   3.432
 1633DOPC   GL118855  21.089  21.421   3.892
 1633DOPC   GL218856  21.049  21.691   4.172
 1633DOPC   C1A18857  21.039  21.214   4.322
 1633DOPC   D2A18858  21.129  20.964   4.722
 1633DOPC   C3A18859  20.829  20.744   4.882
 1633DOPC   C4A18860  20.469  20.884   5.112
 1633DOPC   C1B18861  21.109  21.751   4.642
 1633DOPC   D2B18862  21.249  21.431   4.982
 1633DOPC   C3B18863  21.629  21.611   5.162
 1633DOPC   C4B18864  21.909  21.861   5.542
 1634DOPC   NC318865  13.729  16.364   8.422
 1634DOPC   PO418866  14.139  16.264   8.222
 1634DOPC   GL118867  13.869  16.344   7.962
 1634DOPC   GL218868  14.039  16.534   7.642
 1634DOPC   C1A18869  13.709  16.104   7.582
 1634DOPC   D2A18870  13.889  15.694   7.552
 1634DOPC   C3A18871  13.679  15.304   7.442
 1634DOPC   C4A18872  13.859  15.314   7.082
 1634DOPC   C1B18873  13.949  16.824   7.382
 1634DOPC   D2B18874  14.209  16.964   6.962
 1634DOPC   C3B18875  14.069  16.944   6.582
 1634DOPC   C4B18876  13.879  16.824   6.182
 1635DOPC   NC318877   3.219  12.054   7.232
 1635DOPC   PO418878   2.939  12.404   7.222
 1635DOPC   GL118879   3.079  12.344   6.852
 1635DOPC   GL218880   3.029  12.004   6.772
 1635DOPC   C1A18881   3.339  12.374   6.522
 1635DOPC   D2A18882   3.749  12.384   6.292
 1635DOPC   C3A18883   3.879  12.674   5.872
 1635DOPC   C4A18884   4.209  12.614   5.552
 1635DOPC   C1B18885   2.799  11.884   6.332
 1635DOPC   D2B18886   2.629  12.304   6.102
 1635DOPC   C3B18887   2.839  12.274   5.632
 1635DOPC   C4B18888   3.009  12.214   5.252
 1636DOPC   NC318889  16.859  17.914   7.802
 1636DOPC   PO418890  16.649  18.174   7.412
 1636DOPC   GL118891  16.219  18.244   7.412
 1636DOPC   GL218892  16.169  17.914   7.382
 1636DOPC   C1A18893  16.039  18.314   7.072
 1636DOPC   D2A18894  15.859  18.384   6.662
 1636DOPC   C3A18895  16.029  18.114   6.382
 1636DOPC   C4A18896  16.379  17.904   6.292
 1636DOPC   C1B18897  15.979  17.794   7.012
 1636DOPC   D2B18898  15.839  17.664   6.512
 1636DOPC   C3B18899  15.409  17.684   6.342
 1636DOPC   C4B18900  15.129  18.004   6.242
 1637DOPC   NC318901   3.099   7.294   2.852
 1637DOPC   PO418902   3.189   7.714   2.682
 1637DOPC   GL118903   3.139   7.714   3.132
 1637DOPC   GL218904   3.389   7.844   3.352
 1637DOPC   C1A18905   2.909   7.464   3.502
 1637DOPC   D2A18906   2.829   7.444   3.852
 1637DOPC   C3A18907   2.599   7.724   4.182
 1637DOPC   C4A18908   2.209   7.664   4.492
 1637DOPC   C1B18909   3.219   7.774   3.782
 1637DOPC   D2B18910   3.119   8.104   4.152
 1637DOPC   C3B18911   2.859   8.034   4.472
 1637DOPC   C4B18912   2.509   7.964   4.782
 1638DOPC   NC318913   7.109   3.594   7.912
 1638DOPC   PO418914   6.749   3.464   7.772
 1638DOPC   GL118915   6.969   3.294   7.472
 1638DOPC   GL218916   7.089   3.554   7.342
 1638DOPC   C1A18917   6.949   3.114   7.032
 1638DOPC   D2A18918   6.749   2.854   6.802
 1638DOPC   C3A18919   6.709   3.014   6.352
 1638DOPC   C4A18920   7.079   3.034   6.072
 1638DOPC   C1B18921   7.369   3.484   7.042
 1638DOPC   D2B18922   7.419   3.654   6.652
 1638DOPC   C3B18923   7.489   3.784   6.292
 1638DOPC   C4B18924   7.629   3.984   6.012
 1639DOPC   NC318925  13.929  15.494   4.552
 1639DOPC   PO418926  14.209  15.774   4.352
 1639DOPC   GL118927  14.179  16.054   4.752
 1639DOPC   GL218928  14.439  16.084   5.012
 1639DOPC   C1A18929  14.019  16.084   5.252
 1639DOPC   D2A18930  14.009  15.964   5.672
 1639DOPC   C3A18931  14.269  15.954   5.982
 1639DOPC   C4A18932  14.499  16.074   6.312
 1639DOPC   C1B18933  14.719  16.094   5.172
 1639DOPC   D2B18934  15.079  15.844   5.522
 1639DOPC   C3B18935  15.399  15.984   5.782
 1639DOPC   C4B18936  15.489  16.284   6.072
 1640DOPC   NC318937   0.919   3.244   7.112
 1640DOPC   PO418938   0.929   2.784   7.182
 1640DOPC   GL118939   1.079   2.844   6.742
 1640DOPC   GL218940   1.389   2.724   6.582
 1640DOPC   C1A18941   0.969   2.634   6.342
 1640DOPC   D2A18942   0.709   2.324   6.042
 1640DOPC   C3A18943   0.659   2.294   5.612
 1640DOPC   C4A18944   0.639   2.434   5.212
 1640DOPC   C1B18945   1.339   2.354   6.362
 1640DOPC   D2B18946   1.559   1.974   6.262
 1640DOPC   C3B18947   1.889   1.854   5.882
 1640DOPC   C4B18948   2.079   1.684   5.502
 1641DOPC   NC318949   3.249  18.014   8.052
 1641DOPC   PO418950   2.929  18.064   7.842
 1641DOPC   GL118951   2.979  18.064   7.362
 1641DOPC   GL218952   3.239  18.014   7.222
 1641DOPC   C1A18953   2.779  17.894   7.002
 1641DOPC   D2A18954   2.419  17.754   6.652
 1641DOPC   C3A18955   2.459  18.044   6.282
 1641DOPC   C4A18956   2.629  17.974   5.902
 1641DOPC   C1B18957   3.499  17.994   6.882
 1641DOPC   D2B18958   3.769  17.934   6.632
 1641DOPC   C3B18959   4.139  18.214   6.412
 1641DOPC   C4B18960   4.419  18.444   6.162
 1642DOPC   NC318961  16.809  13.154   4.482
 1642DOPC   PO418962  17.259  13.364   4.332
 1642DOPC   GL118963  17.529  13.384   4.722
 1642DOPC   GL218964  17.499  13.614   4.952
 1642DOPC   C1A18965  17.919  13.384   4.792
 1642DOPC   D2A18966  18.149  13.094   4.912
 1642DOPC   C3A18967  18.249  13.084   5.212
 1642DOPC   C4A18968  18.659  13.204   5.402
 1642DOPC   C1B18969  17.769  13.414   5.302
 1642DOPC   D2B18970  17.669  13.334   5.762
 1642DOPC   C3B18971  17.919  13.524   6.092
 1642DOPC   C4B18972  18.179  13.764   6.372
 1643DOPC   NC318973   9.499  24.441   4.082
 1643DOPC   PO418974   9.159  24.031   4.142
 1643DOPC   GL118975   9.189  24.061   4.642
 1643DOPC   GL218976   9.059  23.781   4.732
 1643DOPC   C1A18977   9.219  24.241   5.092
 1643DOPC   D2A18978   9.379  24.361   5.452
 1643DOPC   C3A18979   9.279  24.751   5.472
 1643DOPC   C4A18980   9.309  25.031   5.692
 1643DOPC   C1B18981   9.079  23.701   5.192
 1643DOPC   D2B18982   8.869  23.521   5.502
 1643DOPC   C3B18983   8.739  23.671   5.892
 1643DOPC   C4B18984   8.729  23.911   6.222
 1644DOPC   NC318985   4.479   6.334   2.732
 1644DOPC   PO418986   4.359   5.974   3.022
 1644DOPC   GL118987   4.219   6.124   3.462
 1644DOPC   GL218988   3.819   6.264   3.502
 1644DOPC   C1A18989   4.249   6.484   3.672
 1644DOPC   D2A18990   4.149   6.704   3.992
 1644DOPC   C3A18991   4.479   7.004   4.222
 1644DOPC   C4A18992   4.769   6.864   4.572
 1644DOPC   C1B18993   3.839   6.244   3.902
 1644DOPC   D2B18994   3.739   6.344   4.292
 1644DOPC   C3B18995   3.689   6.814   4.402
 1644DOPC   C4B18996   3.389   7.084   4.722
 1645DOPC   NC318997  14.369   8.744   4.242
 1645DOPC   PO418998  14.429   9.134   4.442
 1645DOPC   GL118999  14.719   9.164   4.742
 1645DOPC   GL219000  15.059   9.044   4.882
 1645DOPC   C1A19001  14.829   9.494   5.152
 1645DOPC   D2A19002  14.709   9.694   5.512
 1645DOPC   C3A19003  15.059  10.014   5.732
 1645DOPC   C4A19004  15.319  10.184   6.032
 1645DOPC   C1B19005  15.259   8.884   5.262
 1645DOPC   D2B19006  15.579   8.574   5.492
 1645DOPC   C3B19007  15.439   8.274   5.762
 1645DOPC   C4B19008  15.339   7.764   5.532
 1646DOPC   NC319009  20.319  23.021   3.572
 1646DOPC   PO419010  20.599  22.641   3.732
 1646DOPC   GL119011  20.689  22.651   4.312
 1646DOPC   GL219012  20.479  22.391   4.362
 1646DOPC   C1A19013  20.689  22.651   4.712
 1646DOPC   D2A19014  20.559  22.531   5.182
 1646DOPC   C3A19015  20.499  22.901   5.462
 1646DOPC   C4A19016  20.089  23.021   5.662
 1646DOPC   C1B19017  20.329  22.181   4.722
 1646DOPC   D2B19018  20.189  21.831   4.982
 1646DOPC   C3B19019  19.929  21.711   5.272
 1646DOPC   C4B19020  19.749  21.431   5.652
 1647DOPC   NC319021   6.659  16.454   4.152
 1647DOPC   PO419022   6.979  16.404   4.412
 1647DOPC   GL119023   7.099  16.254   4.812
 1647DOPC   GL219024   7.239  15.904   4.972
 1647DOPC   C1A19025   7.139  16.344   5.312
 1647DOPC   D2A19026   7.009  16.404   5.712
 1647DOPC   C3A19027   7.289  16.554   5.972
 1647DOPC   C4A19028   7.469  17.074   6.022
 1647DOPC   C1B19029   7.389  15.784   5.452
 1647DOPC   D2B19030   7.299  15.604   5.782
 1647DOPC   C3B19031   7.369  15.254   6.022
 1647DOPC   C4B19032   7.619  15.194   6.292
 1648DOPC   NC319033  19.919  11.034   7.662
 1648DOPC   PO419034  20.339  10.864   7.632
 1648DOPC   GL119035  20.199  10.944   7.172
 1648DOPC   GL219036  20.309  11.284   6.982
 1648DOPC   C1A19037  19.889  10.774   6.832
 1648DOPC   D2A19038  19.609  11.064   6.592
 1648DOPC   C3A19039  19.259  11.084   6.242
 1648DOPC   C4A19040  18.999  11.444   6.182
 1648DOPC   C1B19041  19.959  11.434   6.772
 1648DOPC   D2B19042  19.629  11.524   6.752
 1648DOPC   C3B19043  19.439  11.574   6.462
 1648DOPC   C4B19044  19.589  11.424   6.092
 1649DOPC   NC319045   1.409   0.504   3.822
 1649DOPC   PO419046   1.169   0.944   3.692
 1649DOPC   GL119047   1.039   0.964   4.082
 1649DOPC   GL219048   1.259   1.144   4.222
 1649DOPC   C1A19049   0.829   1.144   4.492
 1649DOPC   D2A19050   0.549   0.964   4.802
 1649DOPC   C3A19051   0.349   0.644   4.712
 1649DOPC   C4A19052   0.209   0.344   4.552
 1649DOPC   C1B19053   1.359   0.794   4.512
 1649DOPC   D2B19054   1.319   0.704   4.982
 1649DOPC   C3B19055   0.979   0.974   5.122
 1649DOPC   C4B19056   0.809   1.334   5.032
 1650DOPC   NC319057   2.279   0.484   3.432
 1650DOPC   PO419058   1.789   0.334   3.472
 1650DOPC   GL119059   2.009   0.274   3.942
 1650DOPC   GL219060   1.679   0.184   4.112
 1650DOPC   C1A19061   2.289   0.154   4.292
 1650DOPC   D2A19062   2.539  -0.006   4.662
 1650DOPC   C3A19063   2.939  -0.226   4.602
 1650DOPC   C4A19064   3.119  -0.516   4.662
 1650DOPC   C1B19065   1.849   0.044   4.582
 1650DOPC   D2B19066   2.139   0.164   4.912
 1650DOPC   C3B19067   2.019  -0.026   5.352
 1650DOPC   C4B19068   2.269   0.114   5.572
 1651DOPC   NC319069  18.359  21.991   3.952
 1651DOPC   PO419070  18.709  22.201   4.072
 1651DOPC   GL119071  18.339  22.381   4.282
 1651DOPC   GL219072  18.349  22.111   4.442
 1651DOPC   C1A19073  18.399  22.601   4.682
 1651DOPC   D2A19074  18.369  22.411   5.072
 1651DOPC   C3A19075  18.059  22.271   5.342
 1651DOPC   C4A19076  17.789  21.911   5.422
 1651DOPC   C1B19077  17.919  22.201   4.642
 1651DOPC   D2B19078  17.549  22.281   4.822
 1651DOPC   C3B19079  17.569  22.431   5.272
 1651DOPC   C4B19080  17.389  22.331   5.662
 1652DOPC   NC319081   1.809  16.894   7.552
 1652DOPC   PO419082   1.949  17.254   7.282
 1652DOPC   GL119083   1.809  16.984   7.042
 1652DOPC   GL219084   1.399  16.934   6.942
 1652DOPC   C1A19085   1.849  17.034   6.652
 1652DOPC   D2A19086   1.999  17.034   6.162
 1652DOPC   C3A19087   1.969  16.514   5.912
 1652DOPC   C4A19088   1.819  16.194   5.632
 1652DOPC   C1B19089   1.389  16.704   6.602
 1652DOPC   D2B19090   1.189  16.494   6.232
 1652DOPC   C3B19091   1.379  16.434   5.832
 1652DOPC   C4B19092   1.299  16.384   5.382
 1653DOPC   NC319093  20.409  20.904   7.582
 1653DOPC   PO419094  20.639  21.371   7.532
 1653DOPC   GL119095  20.759  21.461   7.072
 1653DOPC   GL219096  20.669  21.731   6.922
 1653DOPC   C1A19097  20.859  21.314   6.632
 1653DOPC   D2A19098  21.019  21.284   6.162
 1653DOPC   C3A19099  20.749  21.334   5.822
 1653DOPC   C4A19100  20.419  21.064   5.712
 1653DOPC   C1B19101  20.329  21.601   6.672
 1653DOPC   D2B19102  19.849  21.621   6.482
 1653DOPC   C3B19103  19.709  21.731   6.082
 1653DOPC   C4B19104  19.319  21.741   5.992
 1654DOPC   NC319105  13.299  24.141   7.832
 1654DOPC   PO419106  13.739  24.081   7.952
 1654DOPC   GL119107  13.849  24.031   7.542
 1654DOPC   GL219108  14.229  23.711   7.542
 1654DOPC   C1A19109  13.769  23.951   7.052
 1654DOPC   D2A19110  13.829  23.811   6.662
 1654DOPC   C3A19111  13.589  23.581   6.442
 1654DOPC   C4A19112  13.329  23.241   6.502
 1654DOPC   C1B19113  14.349  23.871   7.042
 1654DOPC   D2B19114  14.179  24.261   6.762
 1654DOPC   C3B19115  14.129  24.331   6.302
 1654DOPC   C4B19116  13.909  24.261   5.972
 1655DOPC   NC319117  17.559   5.624   4.132
 1655DOPC   PO419118  17.129   5.784   4.202
 1655DOPC   GL119119  17.339   5.954   4.522
 1655DOPC   GL219120  17.659   5.944   4.502
 1655DOPC   C1A19121  17.299   5.824   5.002
 1655DOPC   D2A19122  17.499   5.674   5.342
 1655DOPC   C3A19123  17.789   5.964   5.542
 1655DOPC   C4A19124  18.069   6.394   5.742
 1655DOPC   C1B19125  17.489   6.244   4.862
 1655DOPC   D2B19126  17.329   6.654   4.982
 1655DOPC   C3B19127  17.409   6.814   5.442
 1655DOPC   C4B19128  17.479   6.574   5.842
 1656DOPC   NC319129  17.579  11.094   8.422
 1656DOPC   PO419130  17.209  10.834   8.372
 1656DOPC   GL119131  17.129  11.084   8.002
 1656DOPC   GL219132  16.819  10.934   7.682
 1656DOPC   C1A19133  17.069  11.384   7.582
 1656DOPC   D2A19134  16.849  11.664   7.512
 1656DOPC   C3A19135  16.849  11.924   7.082
 1656DOPC   C4A19136  16.969  11.854   6.572
 1656DOPC   C1B19137  16.789  10.874   7.192
 1656DOPC   D2B19138  16.719  10.944   6.812
 1656DOPC   C3B19139  16.319  10.994   6.712
 1656DOPC   C4B19140  15.899  10.894   6.852
 1657DOPC   NC319141  20.469  11.974   3.732
 1657DOPC   PO419142  20.199  11.594   3.802
 1657DOPC   GL119143  20.379  11.754   4.182
 1657DOPC   GL219144  20.569  11.644   4.452
 1657DOPC   C1A19145  20.199  11.944   4.542
 1657DOPC   D2A19146  20.309  12.204   4.952
 1657DOPC   C3A19147  20.389  12.074   5.352
 1657DOPC   C4A19148  20.479  12.344   5.712
 1657DOPC   C1B19149  20.989  11.644   4.632
 1657DOPC   D2B19150  21.219  11.624   5.022
 1657DOPC   C3B19151  20.949  11.644   5.412
 1657DOPC   C4B19152  20.529  11.604   5.402
 1658DOPC   NC319153  15.789  17.934   3.722
 1658DOPC   PO419154  16.099  18.004   4.002
 1658DOPC   GL119155  16.139  17.754   4.372
 1658DOPC   GL219156  16.159  17.444   4.422
 1658DOPC   C1A19157  16.299  17.704   4.842
 1658DOPC   D2A19158  16.149  17.874   5.242
 1658DOPC   C3A19159  16.459  17.754   5.492
 1658DOPC   C4A19160  16.619  17.894   5.862
 1658DOPC   C1B19161  16.599  17.484   4.442
 1658DOPC   D2B19162  16.979  17.294   4.662
 1658DOPC   C3B19163  17.039  17.544   5.012
 1658DOPC   C4B19164  17.079  17.624   5.462
 1659DOPC   NC319165  21.739  15.694   3.512
 1659DOPC   PO419166  21.439  15.524   3.832
 1659DOPC   GL119167  21.619  15.364   4.242
 1659DOPC   GL219168  21.529  15.494   4.522
 1659DOPC   C1A19169  21.619  15.064   4.502
 1659DOPC   D2A19170  21.399  14.864   4.752
 1659DOPC   C3A19171  21.689  14.594   5.072
 1659DOPC   C4A19172  21.609  14.434   5.342
 1659DOPC   C1B19173  21.279  15.864   4.622
 1659DOPC   D2B19174  21.479  16.034   4.942
 1659DOPC   C3B19175  21.359  15.894   5.332
 1659DOPC   C4B19176  21.549  15.854   5.682
 1660DOPC   NC319177  13.519   1.014   4.072
 1660DOPC   PO419178  13.259   1.384   4.382
 1660DOPC   GL119179  13.269   1.324   4.832
 1660DOPC   GL219180  13.139   1.104   5.102
 1660DOPC   C1A19181  13.109   1.604   5.192
 1660DOPC   D2A19182  12.769   1.884   5.172
 1660DOPC   C3A19183  12.589   1.954   5.632
 1660DOPC   C4A19184  12.449   2.024   6.022
 1660DOPC   C1B19185  13.149   0.984   5.632
 1660DOPC   D2B19186  13.009   1.214   5.992
 1660DOPC   C3B19187  12.509   1.464   6.132
 1660DOPC   C4B19188  12.369   1.744   6.452
 1661DOPC   NC319189   0.859  20.694   3.792
 1661DOPC   PO419190   1.009  21.114   3.882
 1661DOPC   GL119191   1.019  21.144   4.302
 1661DOPC   GL219192   0.639  21.194   4.442
 1661DOPC   C1A19193   1.149  20.924   4.692
 1661DOPC   D2A19194   1.189  20.844   5.072
 1661DOPC   C3A19195   1.109  21.234   5.162
 1661DOPC   C4A19196   1.039  21.631   5.032
 1661DOPC   C1B19197   0.799  21.244   4.802
 1661DOPC   D2B19198   0.609  21.254   5.212
 1661DOPC   C3B19199   0.759  20.964   5.582
 1661DOPC   C4B19200   0.829  21.014   6.142
 1662DOPC   NC319201   1.979  16.854   3.372
 1662DOPC   PO419202   2.449  16.884   3.572
 1662DOPC   GL119203   2.399  16.814   4.072
 1662DOPC   GL219204   2.679  16.904   4.302
 1662DOPC   C1A19205   2.229  16.694   4.422
 1662DOPC   D2A19206   2.039  16.744   4.902
 1662DOPC   C3A19207   2.079  17.034   5.152
 1662DOPC   C4A19208   2.099  17.434   5.162
 1662DOPC   C1B19209   3.049  17.144   4.482
 1662DOPC   D2B19210   3.159  17.404   4.812
 1662DOPC   C3B19211   2.909  17.374   5.192
 1662DOPC   C4B19212   2.579  17.304   5.192
 1663DOPC   NC319213  14.979   7.454   4.562
 1663DOPC   PO419214  15.379   7.344   4.372
 1663DOPC   GL119215  15.389   7.244   4.862
 1663DOPC   GL219216  15.429   7.524   5.002
 1663DOPC   C1A19217  15.439   7.004   5.162
 1663DOPC   D2A19218  15.789   6.734   5.442
 1663DOPC   C3A19219  15.849   6.414   5.652
 1663DOPC   C4A19220  15.579   5.984   5.732
 1663DOPC   C1B19221  15.599   7.414   5.342
 1663DOPC   D2B19222  15.579   7.114   5.722
 1663DOPC   C3B19223  15.389   6.644   5.732
 1663DOPC   C4B19224  15.369   6.384   5.432
 1664DOPC   NC319225   9.309  15.254   4.632
 1664DOPC   PO419226   9.759  15.244   4.692
 1664DOPC   GL119227   9.799  15.304   5.142
 1664DOPC   GL219228  10.159  15.434   5.242
 1664DOPC   C1A19229   9.899  15.074   5.482
 1664DOPC   D2A19230   9.979  14.804   5.782
 1664DOPC   C3A19231   9.669  14.684   6.102
 1664DOPC   C4A19232   9.379  14.554   6.242
 1664DOPC   C1B19233  10.289  15.454   5.652
 1664DOPC   D2B19234   9.959  15.364   5.862
 1664DOPC   C3B19235   9.879  15.244   6.242
 1664DOPC   C4B19236   9.539  15.104   6.662
 1665DOPC   NC319237  12.079   3.334   8.042
 1665DOPC   PO419238  12.279   3.574   8.292
 1665DOPC   GL119239  12.159   3.824   7.892
 1665DOPC   GL219240  12.319   4.044   7.702
 1665DOPC   C1A19241  11.929   3.724   7.442
 1665DOPC   D2A19242  11.719   3.884   7.112
 1665DOPC   C3A19243  12.049   4.064   6.842
 1665DOPC   C4A19244  11.959   4.364   6.532
 1665DOPC   C1B19245  12.199   4.074   7.292
 1665DOPC   D2B19246  12.559   4.024   7.002
 1665DOPC   C3B19247  12.709   3.664   6.822
 1665DOPC   C4B19248  13.019   3.644   6.502
 1666DOPC   NC319249  11.329   2.264   7.872
 1666DOPC   PO419250  10.859   2.214   7.962
 1666DOPC   GL119251  10.949   2.174   7.542
 1666DOPC   GL219252  10.989   1.744   7.472
 1666DOPC   C1A19253  11.409   2.134   7.312
 1666DOPC   D2A19254  11.639   2.054   6.972
 1666DOPC   C3A19255  11.449   2.144   6.562
 1666DOPC   C4A19256  11.249   1.954   6.192
 1666DOPC   C1B19257  10.869   1.804   7.032
 1666DOPC   D2B19258  10.909   1.884   6.612
 1666DOPC   C3B19259  10.549   1.844   6.332
 1666DOPC   C4B19260  10.279   1.694   5.922
 1667DOPC   NC319261  14.819  10.534   4.342
 1667DOPC   PO419262  14.769  10.564   4.762
 1667DOPC   GL119263  14.579  10.694   5.142
 1667DOPC   GL219264  14.399  10.504   5.332
 1667DOPC   C1A19265  14.779  10.834   5.512
 1667DOPC   D2A19266  14.989  10.734   5.892
 1667DOPC   C3A19267  15.319  10.644   6.232
 1667DOPC   C4A19268  15.609  10.754   6.492
 1667DOPC   C1B19269  14.499  10.104   5.312
 1667DOPC   D2B19270  14.289   9.754   5.202
 1667DOPC   C3B19271  14.409   9.244   5.202
 1667DOPC   C4B19272  14.199   8.894   5.232
 1668DOPC   NC319273  21.429  12.434   7.442
 1668DOPC   PO419274  21.859  12.304   7.412
 1668DOPC   GL119275  21.739  12.504   7.072
 1668DOPC   GL219276  21.749  12.864   7.152
 1668DOPC   C1A19277  21.659  12.524   6.562
 1668DOPC   D2A19278  21.629  12.724   6.182
 1668DOPC   C3A19279  21.579  12.674   5.812
 1668DOPC   C4A19280  21.569  12.434   5.482
 1668DOPC   C1B19281  22.099  12.924   6.902
 1668DOPC   D2B19282  22.249  12.914   6.542
 1668DOPC   C3B19283  22.339  13.294   6.292
 1668DOPC   C4B19284  22.609  13.534   6.032
 1669DOPC   NC319285   2.309   0.924   3.082
 1669DOPC   PO419286   2.159   1.054   3.462
 1669DOPC   GL119287   2.079   0.824   3.802
 1669DOPC   GL219288   2.339   0.664   3.872
 1669DOPC   C1A19289   1.969   0.604   4.252
 1669DOPC   D2A19290   1.809   0.524   4.592
 1669DOPC   C3A19291   1.809   0.754   4.952
 1669DOPC   C4A19292   1.629   0.714   5.412
 1669DOPC   C1B19293   2.539   0.584   4.252
 1669DOPC   D2B19294   2.349   0.624   4.672
 1669DOPC   C3B19295   2.589   0.434   4.922
 1669DOPC   C4B19296   2.729   0.214   5.322
 1670DOPC   NC319297   5.029  22.981   4.072
 1670DOPC   PO419298   5.259  23.271   4.232
 1670DOPC   GL119299   5.209  23.151   4.662
 1670DOPC   GL219300   4.849  23.041   4.642
 1670DOPC   C1A19301   5.359  23.111   5.032
 1670DOPC   D2A19302   5.539  22.861   5.252
 1670DOPC   C3A19303   5.509  22.931   5.742
 1670DOPC   C4A19304   5.589  22.691   6.152
 1670DOPC   C1B19305   4.869  23.171   5.112
 1670DOPC   D2B19306   4.909  23.441   5.482
 1670DOPC   C3B19307   4.799  23.801   5.462
 1670DOPC   C4B19308   4.749  24.141   5.682
 1671DOPC   NC319309   5.949   9.334   3.022
 1671DOPC   PO419310   6.119   9.704   3.142
 1671DOPC   GL119311   5.889   9.624   3.612
 1671DOPC   GL219312   6.219   9.554   3.662
 1671DOPC   C1A19313   5.549   9.304   3.912
 1671DOPC   D2A19314   5.449   8.894   4.212
 1671DOPC   C3A19315   5.689   8.544   4.252
 1671DOPC   C4A19316   6.179   8.384   4.232
 1671DOPC   C1B19317   6.019   9.324   4.002
 1671DOPC   D2B19318   5.809   9.144   4.422
 1671DOPC   C3B19319   5.839   8.804   4.592
 1671DOPC   C4B19320   6.049   8.474   4.802
 1672DOPC   NC319321  14.319   2.674   8.122
 1672DOPC   PO419322  13.909   2.514   8.322
 1672DOPC   GL119323  13.959   2.474   7.832
 1672DOPC   GL219324  13.809   2.214   7.642
 1672DOPC   C1A19325  13.989   2.714   7.372
 1672DOPC   D2A19326  14.159   3.184   7.212
 1672DOPC   C3A19327  14.189   3.184   6.872
 1672DOPC   C4A19328  14.299   2.944   6.532
 1672DOPC   C1B19329  14.359   2.384   7.512
 1672DOPC   D2B19330  14.839   2.584   7.562
 1672DOPC   C3B19331  15.029   2.894   7.262
 1672DOPC   C4B19332  15.219   3.164   6.862
 1673DOPC   NC319333   7.259  19.934   4.522
 1673DOPC   PO419334   6.979  19.624   4.392
 1673DOPC   GL119335   7.019  19.574   4.792
 1673DOPC   GL219336   6.979  19.974   4.912
 1673DOPC   C1A19337   6.869  19.384   5.262
 1673DOPC   D2A19338   6.489  19.454   5.402
 1673DOPC   C3A19339   6.269  19.354   5.792
 1673DOPC   C4A19340   6.029  19.494   6.092
 1673DOPC   C1B19341   7.179  20.174   5.302
 1673DOPC   D2B19342   7.279  20.454   5.652
 1673DOPC   C3B19343   7.059  20.254   6.132
 1673DOPC   C4B19344   6.649  20.194   6.292
 1674DOPC   NC319345   2.619  13.704   3.392
 1674DOPC   PO419346   2.289  13.734   3.702
 1674DOPC   GL119347   2.329  13.804   4.092
 1674DOPC   GL219348   2.179  13.694   4.282
 1674DOPC   C1A19349   2.649  13.994   4.332
 1674DOPC   D2A19350   2.659  14.124   4.702
 1674DOPC   C3A19351   2.779  13.914   5.022
 1674DOPC   C4A19352   3.129  13.924   5.262
 1674DOPC   C1B19353   2.039  14.084   4.482
 1674DOPC   D2B19354   1.859  14.154   4.812
 1674DOPC   C3B19355   1.949  14.114   5.202
 1674DOPC   C4B19356   2.169  14.094   5.542
 1675DOPC   NC319357   3.259  14.964   3.652
 1675DOPC   PO419358   3.269  15.414   3.612
 1675DOPC   GL119359   3.419  15.444   4.072
 1675DOPC   GL219360   3.639  15.654   4.092
 1675DOPC   C1A19361   3.199  15.604   4.412
 1675DOPC   D2A19362   3.359  15.854   4.762
 1675DOPC   C3A19363   3.609  15.684   5.042
 1675DOPC   C4A19364   3.839  15.394   5.252
 1675DOPC   C1B19365   3.789  15.844   4.542
 1675DOPC   D2B19366   3.879  16.054   4.862
 1675DOPC   C3B19367   3.519  16.154   5.142
 1675DOPC   C4B19368   3.409  16.554   5.432
 1676DOPC   NC319369  13.789  24.311   4.392
 1676DOPC   PO419370  14.189  24.381   4.322
 1676DOPC   GL119371  14.349  24.631   4.692
 1676DOPC   GL219372  14.209  25.041   4.712
 1676DOPC   C1A19373  14.549  24.731   5.132
 1676DOPC   D2A19374  14.799  24.741   5.442
 1676DOPC   C3A19375  14.689  24.891   5.812
 1676DOPC   C4A19376  14.729  25.181   6.052
 1676DOPC   C1B19377  14.169  25.201   5.102
 1676DOPC   D2B19378  14.019  25.401   5.482
 1676DOPC   C3B19379  13.789  25.151   5.742
 1676DOPC   C4B19380  13.479  25.181   6.052
 1677DOPC   NC319381   9.299  21.481   8.322
 1677DOPC   PO419382   8.999  21.224   8.292
 1677DOPC   GL119383   8.889  21.034   7.942
 1677DOPC   GL219384   8.579  20.974   7.822
 1677DOPC   C1A19385   9.019  20.714   7.532
 1677DOPC   D2A19386   8.919  20.664   7.092
 1677DOPC   C3A19387   8.589  20.404   6.892
 1677DOPC   C4A19388   8.239  20.304   6.652
 1677DOPC   C1B19389   8.519  20.644   7.632
 1677DOPC   D2B19390   8.289  20.494   7.302
 1677DOPC   C3B19391   7.909  20.774   7.202
 1677DOPC   C4B19392   7.969  21.104   7.062
 1678DOPC   NC319393  19.419   0.324   3.692
 1678DOPC   PO419394  19.789   0.574   3.722
 1678DOPC   GL119395  19.799   0.324   4.122
 1678DOPC   GL219396  19.509   0.274   4.182
 1678DOPC   C1A19397  19.849   0.294   4.552
 1678DOPC   D2A19398  19.869   0.074   4.892
 1678DOPC   C3A19399  19.789   0.134   5.332
 1678DOPC   C4A19400  19.759   0.494   5.702
 1678DOPC   C1B19401  19.559   0.714   4.342
 1678DOPC   D2B19402  19.349   1.104   4.492
 1678DOPC   C3B19403  19.619   1.304   4.652
 1678DOPC   C4B19404  19.989   1.554   4.842
 1679DOPC   NC319405  14.439  16.374   4.542
 1679DOPC   PO419406  14.349  16.694   4.432
 1679DOPC   GL119407  14.439  16.884   4.852
 1679DOPC   GL219408  14.099  16.964   4.952
 1679DOPC   C1A19409  14.619  16.974   5.182
 1679DOPC   D2A19410  14.729  16.844   5.542
 1679DOPC   C3A19411  15.039  17.064   5.752
 1679DOPC   C4A19412  14.849  17.324   6.132
 1679DOPC   C1B19413  14.089  16.884   5.432
 1679DOPC   D2B19414  14.229  16.694   5.842
 1679DOPC   C3B19415  14.659  16.364   5.992
 1679DOPC   C4B19416  14.999  16.444   6.382
 1680DOPC   NC319417  18.949   9.274   7.622
 1680DOPC   PO419418  18.979   8.904   7.882
 1680DOPC   GL119419  18.979   8.834   7.412
 1680DOPC   GL219420  19.099   9.054   7.222
 1680DOPC   C1A19421  18.699   8.754   7.052
 1680DOPC   D2A19422  18.399   8.924   6.792
 1680DOPC   C3A19423  18.089   8.894   6.472
 1680DOPC   C4A19424  17.969   8.524   6.432
 1680DOPC   C1B19425  18.939   9.244   6.802
 1680DOPC   D2B19426  18.919   9.124   6.332
 1680DOPC   C3B19427  18.849   9.404   6.022
 1680DOPC   C4B19428  18.529   9.644   5.802
 1681DOPC   NC319429  20.069  12.314   3.472
 1681DOPC   PO419430  20.069  12.774   3.672
 1681DOPC   GL119431  20.059  12.754   4.092
 1681DOPC   GL219432  20.349  12.804   4.172
 1681DOPC   C1A19433  19.899  12.574   4.472
 1681DOPC   D2A19434  19.789  12.214   4.682
 1681DOPC   C3A19435  19.819  11.934   5.032
 1681DOPC   C4A19436  19.639  11.884   5.392
 1681DOPC   C1B19437  20.249  13.094   4.432
 1681DOPC   D2B19438  19.929  13.334   4.612
 1681DOPC   C3B19439  20.049  13.394   5.002
 1681DOPC   C4B19440  20.199  13.564   5.392
 1682DOPC   NC319441  12.649  21.164   4.562
 1682DOPC   PO419442  12.949  21.224   4.362
 1682DOPC   GL119443  13.149  21.024   4.782
 1682DOPC   GL219444  12.979  20.954   5.002
 1682DOPC   C1A19445  13.369  21.204   5.152
 1682DOPC   D2A19446  13.509  21.104   5.602
 1682DOPC   C3A19447  13.899  21.144   5.772
 1682DOPC   C4A19448  14.169  20.984   6.082
 1682DOPC   C1B19449  12.989  21.154   5.432
 1682DOPC   D2B19450  13.049  21.124   5.862
 1682DOPC   C3B19451  12.819  21.044   6.162
 1682DOPC   C4B19452  12.779  21.371   6.512
 1683DOPC   NC319453  21.089  12.094  11.582
 1683DOPC   PO419454  20.889  11.924  11.852
 1683DOPC   GL119455  20.829  11.814  12.342
 1683DOPC   GL219456  20.719  11.534  12.382
 1683DOPC   C1A19457  20.889  12.004  12.602
 1683DOPC   D2A19458  21.129  12.074  13.022
 1683DOPC   C3A19459  20.939  12.214  13.392
 1683DOPC   C4A19460  20.589  12.204  13.562
 1683DOPC   C1B19461  20.279  11.334  12.522
 1683DOPC   D2B19462  19.869  11.024  12.422
 1683DOPC   C3B19463  19.679  10.684  12.672
 1683DOPC   C4B19464  19.499  10.754  13.002
 1684DOPC   NC319465  17.739  16.824   3.542
 1684DOPC   PO419466  18.009  16.804   3.912
 1684DOPC   GL119467  18.109  16.784   4.342
 1684DOPC   GL219468  18.379  16.954   4.532
 1684DOPC   C1A19469  18.029  16.784   4.832
 1684DOPC   D2A19470  17.999  16.724   5.282
 1684DOPC   C3A19471  17.579  16.754   5.412
 1684DOPC   C4A19472  17.219  16.484   5.542
 1684DOPC   C1B19473  18.439  17.434   4.732
 1684DOPC   D2B19474  18.659  17.834   4.872
 1684DOPC   C3B19475  18.389  18.114   5.142
 1684DOPC   C4B19476  18.019  18.244   5.102
 1685DOPC   NC319477   0.259   2.834   3.272
 1685DOPC   PO419478   0.519   3.224   3.412
 1685DOPC   GL119479   0.489   3.504   3.742
 1685DOPC   GL219480   0.399   3.714   3.492
 1685DOPC   C1A19481   0.099   3.684   4.042
 1685DOPC   D2A19482  -0.119   3.324   4.482
 1685DOPC   C3A19483  -0.109   3.584   4.912
 1685DOPC   C4A19484  -0.509   3.464   5.132
 1685DOPC   C1B19485   0.509   4.024   3.802
 1685DOPC   D2B19486   0.489   4.384   4.152
 1685DOPC   C3B19487   0.299   4.264   4.582
 1685DOPC   C4B19488   0.339   4.504   4.992
 1686DOPC   NC319489  24.569  12.364   4.132
 1686DOPC   PO419490  24.559  12.814   4.212
 1686DOPC   GL119491  24.459  12.624   4.572
 1686DOPC   GL219492  24.289  12.284   4.612
 1686DOPC   C1A19493  24.439  12.704   5.002
 1686DOPC   D2A19494  24.329  12.554   5.372
 1686DOPC   C3A19495  24.599  12.204   5.612
 1686DOPC   C4A19496  24.599  11.844   5.902
 1686DOPC   C1B19497  24.299  12.114   4.982
 1686DOPC   D2B19498  24.249  11.954   5.342
 1686DOPC   C3B19499  24.109  12.024   5.752
 1686DOPC   C4B19500  23.829  11.984   6.092
 1687DOPC   NC319501  13.209  17.004   4.762
 1687DOPC   PO419502  13.139  17.454   4.952
 1687DOPC   GL119503  12.849  17.424   5.292
 1687DOPC   GL219504  12.629  17.154   5.372
 1687DOPC   C1A19505  12.919  17.614   5.642
 1687DOPC   D2A19506  13.129  17.734   6.092
 1687DOPC   C3A19507  13.489  17.684   6.332
 1687DOPC   C4A19508  13.679  17.694   6.772
 1687DOPC   C1B19509  12.699  16.884   5.742
 1687DOPC   D2B19510  12.949  16.664   6.072
 1687DOPC   C3B19511  13.399  16.854   6.132
 1687DOPC   C4B19512  13.679  16.854   5.752
 1688DOPC   NC319513  15.039   0.794   4.082
 1688DOPC   PO419514  14.609   1.004   4.302
 1688DOPC   GL119515  14.719   1.134   4.782
 1688DOPC   GL219516  15.069   1.204   5.002
 1688DOPC   C1A19517  14.509   1.304   5.092
 1688DOPC   D2A19518  14.579   1.084   5.472
 1688DOPC   C3A19519  14.369   1.154   5.882
 1688DOPC   C4A19520  14.579   1.414   6.312
 1688DOPC   C1B19521  14.929   0.804   5.132
 1688DOPC   D2B19522  14.809   0.644   5.492
 1688DOPC   C3B19523  14.839   0.904   5.842
 1688DOPC   C4B19524  14.749   0.954   6.192
 1689DOPC   NC319525  22.939  17.974   3.732
 1689DOPC   PO419526  22.849  17.584   4.032
 1689DOPC   GL119527  22.749  17.574   4.382
 1689DOPC   GL219528  22.429  17.324   4.342
 1689DOPC   C1A19529  22.859  17.324   4.692
 1689DOPC   D2A19530  23.089  17.004   4.632
 1689DOPC   C3A19531  23.199  16.704   5.072
 1689DOPC   C4A19532  23.369  16.554   5.502
 1689DOPC   C1B19533  22.289  17.164   4.772
 1689DOPC   D2B19534  21.979  17.154   5.102
 1689DOPC   C3B19535  21.639  16.954   5.282
 1689DOPC   C4B19536  21.249  17.034   5.352
 1690DOPC   NC319537  11.289  10.884   8.922
 1690DOPC   PO419538  10.759  11.064   8.802
 1690DOPC   GL119539  10.869  11.234   8.472
 1690DOPC   GL219540  11.109  10.994   8.392
 1690DOPC   C1A19541  10.929  11.484   8.102
 1690DOPC   D2A19542  11.239  11.774   7.812
 1690DOPC   C3A19543  11.259  12.234   7.762
 1690DOPC   C4A19544  10.969  12.584   7.552
 1690DOPC   C1B19545  11.369  11.234   8.092
 1690DOPC   D2B19546  11.659  11.514   7.732
 1690DOPC   C3B19547  11.669  11.424   7.282
 1690DOPC   C4B19548  11.919  11.204   6.992
 1691DOPC   NC319549  13.849   2.554   4.242
 1691DOPC   PO419550  14.269   2.664   4.362
 1691DOPC   GL119551  14.439   2.694   4.762
 1691DOPC   GL219552  14.309   2.474   5.052
 1691DOPC   C1A19553  14.539   2.974   5.162
 1691DOPC   D2A19554  14.419   3.254   5.342
 1691DOPC   C3A19555  14.759   3.234   5.642
 1691DOPC   C4A19556  15.039   3.574   5.622
 1691DOPC   C1B19557  14.349   2.504   5.482
 1691DOPC   D2B19558  14.389   2.874   5.622
 1691DOPC   C3B19559  14.609   2.984   6.122
 1691DOPC   C4B19560  14.729   3.154   6.422
 1692DOPC   NC319561   3.939  18.094   4.382
 1692DOPC   PO419562   3.509  18.224   4.342
 1692DOPC   GL119563   3.469  18.184   4.732
 1692DOPC   GL219564   3.779  17.904   4.802
 1692DOPC   C1A19565   3.399  18.134   5.162
 1692DOPC   D2A19566   3.509  18.404   5.502
 1692DOPC   C3A19567   3.459  18.424   5.812
 1692DOPC   C4A19568   3.649  18.164   6.152
 1692DOPC   C1B19569   3.459  17.624   5.212
 1692DOPC   D2B19570   3.429  17.224   5.502
 1692DOPC   C3B19571   3.279  17.224   5.822
 1692DOPC   C4B19572   3.169  17.174   6.292
 1693DOPC   NC319573   8.299   7.964   3.432
 1693DOPC   PO419574   8.019   7.914   3.832
 1693DOPC   GL119575   7.739   8.024   4.142
 1693DOPC   GL219576   7.799   7.824   4.352
 1693DOPC   C1A19577   7.729   8.234   4.592
 1693DOPC   D2A19578   7.849   8.514   5.002
 1693DOPC   C3A19579   8.009   8.314   5.452
 1693DOPC   C4A19580   7.949   7.914   5.702
 1693DOPC   C1B19581   7.819   7.804   4.822
 1693DOPC   D2B19582   8.099   8.054   5.082
 1693DOPC   C3B19583   8.439   8.014   5.392
 1693DOPC   C4B19584   8.389   8.214   5.802
 1694DOPC   NC319585   4.169  15.094   3.582
 1694DOPC   PO419586   4.279  14.694   3.372
 1694DOPC   GL119587   4.349  14.634   3.902
 1694DOPC   GL219588   4.379  14.414   4.212
 1694DOPC   C1A19589   4.159  14.874   4.152
 1694DOPC   D2A19590   3.929  15.284   4.322
 1694DOPC   C3A19591   3.959  15.394   4.752
 1694DOPC   C4A19592   4.219  15.594   4.992
 1694DOPC   C1B19593   4.259  14.624   4.572
 1694DOPC   D2B19594   3.919  14.894   4.642
 1694DOPC   C3B19595   3.699  14.994   4.952
 1694DOPC   C4B19596   3.619  14.874   5.412
 1695DOPC   NC319597   8.319  11.204   8.102
 1695DOPC   PO419598   8.199  10.834   7.992
 1695DOPC   GL119599   8.429  10.924   7.642
 1695DOPC   GL219600   8.669  11.124   7.622
 1695DOPC   C1A19601   8.559  10.924   7.182
 1695DOPC   D2A19602   8.629  10.764   6.772
 1695DOPC   C3A19603   8.929  10.754   6.502
 1695DOPC   C4A19604   9.109  10.414   6.292
 1695DOPC   C1B19605   8.819  11.374   7.312
 1695DOPC   D2B19606   9.039  11.654   7.032
 1695DOPC   C3B19607   9.289  11.924   7.332
 1695DOPC   C4B19608   9.569  12.244   7.422
 1696DOPC   NC319609  12.949   5.334   8.192
 1696DOPC   PO419610  13.329   5.574   8.332
 1696DOPC   GL119611  13.409   5.654   7.932
 1696DOPC   GL219612  13.309   5.914   7.692
 1696DOPC   C1A19613  13.719   5.714   7.582
 1696DOPC   D2A19614  14.049   5.714   7.382
 1696DOPC   C3A19615  14.279   5.394   7.072
 1696DOPC   C4A19616  14.099   4.994   7.082
 1696DOPC   C1B19617  13.419   6.154   7.432
 1696DOPC   D2B19618  13.409   6.334   7.022
 1696DOPC   C3B19619  13.369   6.314   6.582
 1696DOPC   C4B19620  13.829   6.384   6.342
 1697DOPC   NC319621  10.489  26.371   4.332
 1697DOPC   PO419622  10.149  26.041   4.402
 1697DOPC   GL119623  10.459  25.761   4.722
 1697DOPC   GL219624  10.609  25.491   4.742
 1697DOPC   C1A19625  10.509  25.711   5.142
 1697DOPC   D2A19626  10.349  25.751   5.502
 1697DOPC   C3A19627  10.299  25.691   5.892
 1697DOPC   C4A19628  10.439  25.611   6.292
 1697DOPC   C1B19629  10.509  25.231   5.072
 1697DOPC   D2B19630  10.429  25.191   5.492
 1697DOPC   C3B19631  10.569  24.881   5.762
 1697DOPC   C4B19632  10.969  24.831   5.842
 1698DOPC   NC319633  24.109  24.231   7.412
 1698DOPC   PO419634  23.899  23.861   7.162
 1698DOPC   GL119635  24.089  24.021   6.792
 1698DOPC   GL219636  24.299  24.191   6.942
 1698DOPC   C1A19637  24.219  24.211   6.412
 1698DOPC   D2A19638  24.359  24.171   6.092
 1698DOPC   C3A19639  24.259  23.931   5.822
 1698DOPC   C4A19640  24.139  23.951   5.352
 1698DOPC   C1B19641  24.569  24.461   6.632
 1698DOPC   D2B19642  24.639  24.581   6.182
 1698DOPC   C3B19643  24.369  25.021   5.992
 1698DOPC   C4B19644  24.139  25.391   5.862
 1699DOPC   NC319645  20.579   6.004   3.542
 1699DOPC   PO419646  21.049   6.164   3.582
 1699DOPC   GL119647  20.779   6.154   4.042
 1699DOPC   GL219648  20.789   5.784   3.992
 1699DOPC   C1A19649  20.959   6.314   4.362
 1699DOPC   D2A19650  20.959   6.534   4.772
 1699DOPC   C3A19651  21.119   6.454   5.102
 1699DOPC   C4A19652  21.349   6.684   5.322
 1699DOPC   C1B19653  21.009   5.744   4.392
 1699DOPC   D2B19654  21.149   5.534   4.712
 1699DOPC   C3B19655  20.959   5.534   5.122
 1699DOPC   C4B19656  21.169   5.754   5.522
 1700DOPC   NC319657   8.699   9.244   3.582
 1700DOPC   PO419658   8.459   9.194   3.942
 1700DOPC   GL119659   8.279   9.194   4.282
 1700DOPC   GL219660   8.009   9.054   4.312
 1700DOPC   C1A19661   8.519   9.224   4.632
 1700DOPC   D2A19662   8.769   9.234   5.012
 1700DOPC   C3A19663   8.649   9.254   5.402
 1700DOPC   C4A19664   8.539   9.444   5.872
 1700DOPC   C1B19665   8.149   8.854   4.692
 1700DOPC   D2B19666   8.189   9.014   5.092
 1700DOPC   C3B19667   7.859   8.814   5.472
 1700DOPC   C4B19668   7.519   8.734   5.772
 1701DOPC   NC319669  21.939  12.174   3.662
 1701DOPC   PO419670  22.139  12.334   3.902
 1701DOPC   GL119671  22.429  12.404   4.142
 1701DOPC   GL219672  22.579  12.634   3.972
 1701DOPC   C1A19673  22.269  12.234   4.472
 1701DOPC   D2A19674  22.319  12.334   4.902
 1701DOPC   C3A19675  22.509  12.624   5.142
 1701DOPC   C4A19676  22.399  12.864   5.542
 1701DOPC   C1B19677  22.809  12.864   4.272
 1701DOPC   D2B19678  23.039  12.934   4.682
 1701DOPC   C3B19679  22.849  12.984   5.002
 1701DOPC   C4B19680  22.779  13.154   5.352
 1702DOPC   NC319681  23.529   2.174   7.732
 1702DOPC   PO419682  23.449   2.254   7.262
 1702DOPC   GL119683  23.179   2.074   6.902
 1702DOPC   GL219684  22.809   2.124   6.892
 1702DOPC   C1A19685  23.109   2.284   6.512
 1702DOPC   D2A19686  22.939   2.244   6.092
 1702DOPC   C3A19687  23.089   2.214   5.652
 1702DOPC   C4A19688  22.999   2.114   5.152
 1702DOPC   C1B19689  22.839   1.854   6.582
 1702DOPC   D2B19690  22.809   1.704   6.202
 1702DOPC   C3B19691  22.559   1.854   5.832
 1702DOPC   C4B19692  22.619   2.114   5.542
 1703DOPC   NC319693  21.429  21.991   7.582
 1703DOPC   PO419694  21.359  21.561   7.542
 1703DOPC   GL119695  21.149  21.861   7.092
 1703DOPC   GL219696  21.159  21.731   6.762
 1703DOPC   C1A19697  21.109  22.211   6.872
 1703DOPC   D2A19698  20.789  22.611   6.822
 1703DOPC   C3A19699  20.949  22.931   6.502
 1703DOPC   C4A19700  20.899  23.071   6.062
 1703DOPC   C1B19701  20.939  21.801   6.452
 1703DOPC   D2B19702  20.999  21.761   5.992
 1703DOPC   C3B19703  20.649  21.971   5.822
 1703DOPC   C4B19704  20.349  21.981   5.442
 1704DOPC   NC319705   2.899   5.754   3.512
 1704DOPC   PO419706   2.829   5.324   3.442
 1704DOPC   GL119707   2.969   5.414   3.912
 1704DOPC   GL219708   2.789   5.024   3.952
 1704DOPC   C1A19709   2.749   5.544   4.332
 1704DOPC   D2A19710   2.439   5.654   4.662
 1704DOPC   C3A19711   2.659   5.354   5.072
 1704DOPC   C4A19712   2.939   5.384   5.332
 1704DOPC   C1B19713   2.669   4.994   4.282
 1704DOPC   D2B19714   2.749   5.084   4.682
 1704DOPC   C3B19715   2.499   4.864   5.002
 1704DOPC   C4B19716   2.159   4.434   5.112
 1705DOPC   NC319717  18.979   5.524   4.382
 1705DOPC   PO419718  18.649   5.844   4.602
 1705DOPC   GL119719  18.769   5.484   4.852
 1705DOPC   GL219720  19.049   5.564   4.972
 1705DOPC   C1A19721  18.999   5.074   5.012
 1705DOPC   D2A19722  19.329   4.764   5.012
 1705DOPC   C3A19723  19.559   4.514   5.342
 1705DOPC   C4A19724  19.739   4.044   5.312
 1705DOPC   C1B19725  19.079   5.474   5.482
 1705DOPC   D2B19726  19.509   5.354   5.882
 1705DOPC   C3B19727  19.609   5.524   6.212
 1705DOPC   C4B19728  19.599   5.284   6.572
 1706DOPC   NC319729  25.619  14.534   3.392
 1706DOPC   PO419730  25.379  14.844   3.642
 1706DOPC   GL119731  25.299  14.774   4.072
 1706DOPC   GL219732  25.319  15.094   4.132
 1706DOPC   C1A19733  25.049  14.554   4.462
 1706DOPC   D2A19734  24.929  14.584   4.872
 1706DOPC   C3A19735  24.979  14.384   5.232
 1706DOPC   C4A19736  25.239  14.374   5.552
 1706DOPC   C1B19737  25.109  15.174   4.582
 1706DOPC   D2B19738  24.969  15.164   4.992
 1706DOPC   C3B19739  24.669  14.824   5.312
 1706DOPC   C4B19740  24.479  14.554   5.622
 1707DOPC   NC319741   5.369   3.954   7.442
 1707DOPC   PO419742   5.729   4.134   7.512
 1707DOPC   GL119743   5.849   3.754   7.272
 1707DOPC   GL219744   6.189   3.714   7.122
 1707DOPC   C1A19745   5.879   3.784   6.752
 1707DOPC   D2A19746   6.099   3.664   6.372
 1707DOPC   C3A19747   6.229   3.964   6.112
 1707DOPC   C4A19748   6.439   4.314   5.912
 1707DOPC   C1B19749   6.369   3.864   6.782
 1707DOPC   D2B19750   6.149   4.244   6.512
 1707DOPC   C3B19751   5.689   4.044   6.372
 1707DOPC   C4B19752   5.299   3.854   6.462
 1708DOPC   NC319753  17.239  19.104   7.262
 1708DOPC   PO419754  17.539  18.774   7.382
 1708DOPC   GL119755  17.479  18.784   6.962
 1708DOPC   GL219756  17.449  19.014   6.812
 1708DOPC   C1A19757  17.519  18.474   6.602
 1708DOPC   D2A19758  17.459  18.334   6.252
 1708DOPC   C3A19759  17.569  18.784   5.982
 1708DOPC   C4A19760  17.249  19.134   5.922
 1708DOPC   C1B19761  17.429  19.064   6.372
 1708DOPC   D2B19762  16.989  19.154   6.342
 1708DOPC   C3B19763  16.939  19.484   6.082
 1708DOPC   C4B19764  16.839  19.934   5.932
 1709DOPC   NC319765   7.309  13.684   3.822
 1709DOPC   PO419766   7.559  13.744   4.152
 1709DOPC   GL119767   7.589  13.754   4.592
 1709DOPC   GL219768   7.929  13.604   4.642
 1709DOPC   C1A19769   7.439  13.794   5.002
 1709DOPC   D2A19770   7.509  13.454   5.402
 1709DOPC   C3A19771   7.139  13.504   5.602
 1709DOPC   C4A19772   6.699  13.414   5.592
 1709DOPC   C1B19773   7.969  13.714   5.052
 1709DOPC   D2B19774   8.049  13.824   5.422
 1709DOPC   C3B19775   8.009  13.904   5.922
 1709DOPC   C4B19776   7.939  14.064   6.342
 1710DOPC   NC319777   5.709  23.401   4.112
 1710DOPC   PO419778   6.029  23.691   4.102
 1710DOPC   GL119779   6.079  23.671   4.492
 1710DOPC   GL219780   5.649  23.621   4.582
 1710DOPC   C1A19781   6.089  23.461   4.842
 1710DOPC   D2A19782   6.089  23.521   5.252
 1710DOPC   C3A19783   6.199  23.351   5.722
 1710DOPC   C4A19784   6.099  22.971   5.972
 1710DOPC   C1B19785   5.629  23.471   4.992
 1710DOPC   D2B19786   5.689  23.311   5.452
 1710DOPC   C3B19787   5.339  23.591   5.682
 1710DOPC   C4B19788   4.959  23.621   5.962
 1711DOPC   NC319789  15.859  24.121   4.272
 1711DOPC   PO419790  15.479  24.201   4.112
 1711DOPC   GL119791  15.529  24.401   4.492
 1711DOPC   GL219792  15.319  24.311   4.622
 1711DOPC   C1A19793  15.499  24.641   4.912
 1711DOPC   D2A19794  15.259  24.591   5.342
 1711DOPC   C3A19795  15.429  24.751   5.702
 1711DOPC   C4A19796  15.589  25.181   5.842
 1711DOPC   C1B19797  15.489  24.131   4.982
 1711DOPC   D2B19798  15.679  24.331   5.302
 1711DOPC   C3B19799  15.939  24.641   5.372
 1711DOPC   C4B19800  15.979  25.021   5.562
 1712DOPC   NC319801   8.779   2.814   3.942
 1712DOPC   PO419802   8.979   2.494   4.212
 1712DOPC   GL119803   8.849   2.474   4.602
 1712DOPC   GL219804   8.739   2.794   4.702
 1712DOPC   C1A19805   8.979   2.544   5.002
 1712DOPC   D2A19806   9.189   2.294   5.332
 1712DOPC   C3A19807   9.189   2.264   5.812
 1712DOPC   C4A19808   9.369   2.524   5.982
 1712DOPC   C1B19809   8.369   2.764   5.152
 1712DOPC   D2B19810   8.379   3.134   5.412
 1712DOPC   C3B19811   8.139   3.194   5.772
 1712DOPC   C4B19812   8.289   3.154   6.182
 1713DOPC   NC319813   7.629  13.034   3.232
 1713DOPC   PO419814   7.539  12.894   3.632
 1713DOPC   GL119815   7.469  12.624   3.952
 1713DOPC   GL219816   7.299  12.704   4.242
 1713DOPC   C1A19817   7.139  12.374   3.932
 1713DOPC   D2A19818   7.059  11.914   3.972
 1713DOPC   C3A19819   6.949  11.804   4.372
 1713DOPC   C4A19820   7.189  11.924   4.732
 1713DOPC   C1B19821   7.369  12.674   4.702
 1713DOPC   D2B19822   7.429  12.684   5.042
 1713DOPC   C3B19823   7.319  12.574   5.462
 1713DOPC   C4B19824   7.469  12.614   5.912
 1714DOPC   NC319825  22.569  16.124   7.642
 1714DOPC   PO419826  22.649  15.664   7.672
 1714DOPC   GL119827  22.899  15.674   7.252
 1714DOPC   GL219828  22.649  15.414   7.072
 1714DOPC   C1A19829  22.959  15.934   6.872
 1714DOPC   D2A19830  22.879  15.774   6.422
 1714DOPC   C3A19831  23.029  16.084   6.142
 1714DOPC   C4A19832  22.869  16.344   5.812
 1714DOPC   C1B19833  22.549  15.474   6.722
 1714DOPC   D2B19834  22.549  15.394   6.292
 1714DOPC   C3B19835  22.359  15.654   5.962
 1714DOPC   C4B19836  22.189  15.544   5.642
 1715DOPC   NC319837  13.659  23.301   4.182
 1715DOPC   PO419838  13.589  23.741   4.362
 1715DOPC   GL119839  13.459  23.831   4.772
 1715DOPC   GL219840  13.159  23.741   4.892
 1715DOPC   C1A19841  13.689  24.031   5.042
 1715DOPC   D2A19842  13.749  23.991   5.562
 1715DOPC   C3A19843  13.789  23.611   5.702
 1715DOPC   C4A19844  13.849  23.301   6.102
 1715DOPC   C1B19845  13.319  23.731   5.322
 1715DOPC   D2B19846  13.229  23.701   5.822
 1715DOPC   C3B19847  13.549  23.951   6.162
 1715DOPC   C4B19848  13.579  24.291   6.342
 1716DOPC   NC319849  16.029   9.744   4.592
 1716DOPC   PO419850  15.639   9.724   4.502
 1716DOPC   GL119851  15.659   9.864   4.932
 1716DOPC   GL219852  15.979  10.074   4.982
 1716DOPC   C1A19853  15.799   9.574   5.222
 1716DOPC   D2A19854  15.859   9.494   5.592
 1716DOPC   C3A19855  15.429   9.314   5.582
 1716DOPC   C4A19856  15.039   9.244   5.482
 1716DOPC   C1B19857  16.079  10.374   5.302
 1716DOPC   D2B19858  16.379  10.314   5.492
 1716DOPC   C3B19859  16.659   9.974   5.792
 1716DOPC   C4B19860  16.839   9.794   6.142
 1717DOPC   NC319861  13.549   5.154   8.602
 1717DOPC   PO419862  13.549   5.184   8.112
 1717DOPC   GL119863  13.659   5.204   7.662
 1717DOPC   GL219864  13.669   4.874   7.472
 1717DOPC   C1A19865  13.729   5.344   7.232
 1717DOPC   D2A19866  13.799   5.424   6.862
 1717DOPC   C3A19867  14.049   5.194   6.582
 1717DOPC   C4A19868  14.139   4.774   6.542
 1717DOPC   C1B19869  13.199   4.874   7.272
 1717DOPC   D2B19870  12.839   5.024   7.252
 1717DOPC   C3B19871  12.599   5.074   6.852
 1717DOPC   C4B19872  12.419   5.404   6.652
 1718DOPC   NC319873   3.979   9.474   3.112
 1718DOPC   PO419874   3.599   9.684   3.052
 1718DOPC   GL119875   3.689   9.614   3.482
 1718DOPC   GL219876   3.449   9.694   3.762
 1718DOPC   C1A19877   3.969   9.484   3.922
 1718DOPC   D2A19878   3.979   9.374   4.392
 1718DOPC   C3A19879   4.149   9.134   4.932
 1718DOPC   C4A19880   4.189   8.834   5.182
 1718DOPC   C1B19881   3.429   9.464   4.102
 1718DOPC   D2B19882   3.549   9.094   4.402
 1718DOPC   C3B19883   3.629   9.094   4.762
 1718DOPC   C4B19884   3.429   9.184   5.112
 1719DOPC   NC319885   9.959  20.474   4.602
 1719DOPC   PO419886  10.329  20.234   4.782
 1719DOPC   GL119887  10.389  20.234   5.142
 1719DOPC   GL219888  10.419  19.904   5.332
 1719DOPC   C1A19889  10.159  20.324   5.562
 1719DOPC   D2A19890  10.229  20.434   5.982
 1719DOPC   C3A19891   9.939  20.524   6.302
 1719DOPC   C4A19892   9.789  20.574   6.632
 1719DOPC   C1B19893  10.309  19.874   5.702
 1719DOPC   D2B19894  10.179  19.864   6.042
 1719DOPC   C3B19895   9.849  19.814   6.222
 1719DOPC   C4B19896   9.649  19.544   6.532
 1720DOPC   NC319897  17.009  13.964   3.922
 1720DOPC   PO419898  17.079  14.234   4.182
 1720DOPC   GL119899  16.909  14.554   4.372
 1720DOPC   GL219900  17.079  14.744   4.552
 1720DOPC   C1A19901  16.529  14.604   4.592
 1720DOPC   D2A19902  16.309  14.934   4.952
 1720DOPC   C3A19903  16.549  15.244   5.252
 1720DOPC   C4A19904  17.039  15.344   5.342
 1720DOPC   C1B19905  16.859  14.464   4.882
 1720DOPC   D2B19906  16.919  14.214   5.192
 1720DOPC   C3B19907  17.299  14.114   5.182
 1720DOPC   C4B19908  17.649  14.244   5.382
 1721DOPC   NC319909  17.749   6.534   3.852
 1721DOPC   PO419910  17.939   6.434   4.302
 1721DOPC   GL119911  17.909   6.314   4.672
 1721DOPC   GL219912  18.159   6.044   4.632
 1721DOPC   C1A19913  17.879   5.934   5.042
 1721DOPC   D2A19914  18.179   5.774   5.192
 1721DOPC   C3A19915  18.029   5.444   5.502
 1721DOPC   C4A19916  17.799   5.454   5.812
 1721DOPC   C1B19917  18.279   6.244   5.082
 1721DOPC   D2B19918  18.509   6.414   5.472
 1721DOPC   C3B19919  18.959   6.454   5.612
 1721DOPC   C4B19920  19.369   6.454   5.722
 1722DOPC   NC319921  10.399  22.011   4.502
 1722DOPC   PO419922  10.819  22.271   4.712
 1722DOPC   GL119923  10.709  22.571   4.932
 1722DOPC   GL219924  10.929  22.541   5.182
 1722DOPC   C1A19925  10.409  22.571   5.202
 1722DOPC   D2A19926  10.239  22.811   5.472
 1722DOPC   C3A19927  10.269  23.171   5.832
 1722DOPC   C4A19928  10.369  23.551   6.062
 1722DOPC   C1B19929  10.759  22.431   5.662
 1722DOPC   D2B19930  10.539  22.261   6.042
 1722DOPC   C3B19931  10.409  22.541   6.252
 1722DOPC   C4B19932  10.209  22.951   6.352
 1723DOPC   NC319933  25.499  24.781   3.452
 1723DOPC   PO419934  25.419  25.181   3.482
 1723DOPC   GL119935  25.579  25.261   3.882
 1723DOPC   GL219936  25.449  25.081   4.082
 1723DOPC   C1A19937  25.736  25.371   4.342
 1723DOPC   D2A19938  25.716  25.451   4.862
 1723DOPC   C3A19939  25.409  25.391   5.282
 1723DOPC   C4A19940  25.109  25.711   5.492
 1723DOPC   C1B19941  25.229  25.371   4.292
 1723DOPC   D2B19942  25.369  25.751   4.392
 1723DOPC   C3B19943  25.359  25.871   4.722
 1723DOPC   C4B19944  25.259  26.011   5.142
 1724DOPC   NC319945   6.919  14.084   3.882
 1724DOPC   PO419946   6.409  14.024   3.752
 1724DOPC   GL119947   6.459  14.084   4.192
 1724DOPC   GL219948   6.749  14.174   4.392
 1724DOPC   C1A19949   6.219  14.164   4.492
 1724DOPC   D2A19950   5.929  13.994   4.712
 1724DOPC   C3A19951   5.899  14.114   5.162
 1724DOPC   C4A19952   5.829  14.204   5.612
 1724DOPC   C1B19953   6.559  13.994   4.792
 1724DOPC   D2B19954   6.389  13.964   5.102
 1724DOPC   C3B19955   6.339  13.654   5.442
 1724DOPC   C4B19956   6.149  13.424   5.592
 1725DOPC   NC319957  24.389  20.614   7.482
 1725DOPC   PO419958  24.759  20.794   7.402
 1725DOPC   GL119959  25.049  20.744   7.062
 1725DOPC   GL219960  25.349  20.544   6.992
 1725DOPC   C1A19961  25.259  21.024   6.752
 1725DOPC   D2A19962  25.469  21.274   6.382
 1725DOPC   C3A19963  25.219  21.581   6.282
 1725DOPC   C4A19964  25.189  21.911   6.032
 1725DOPC   C1B19965  25.766  20.464   6.772
 1725DOPC   D2B19966  26.086  20.184   6.662
 1725DOPC   C3B19967  26.376  20.174   6.322
 1725DOPC   C4B19968  26.526  20.364   6.052
 1726DOPC   NC319969  19.889   3.574   7.502
 1726DOPC   PO419970  19.429   3.444   7.402
 1726DOPC   GL119971  19.579   3.624   7.112
 1726DOPC   GL219972  19.679   3.944   7.232
 1726DOPC   C1A19973  19.379   3.864   6.732
 1726DOPC   D2A19974  19.549   3.894   6.432
 1726DOPC   C3A19975  19.349   3.524   6.212
 1726DOPC   C4A19976  19.309   3.264   5.882
 1726DOPC   C1B19977  19.959   3.814   6.812
 1726DOPC   D2B19978  19.799   3.494   6.452
 1726DOPC   C3B19979  19.979   3.764   6.122
 1726DOPC   C4B19980  20.029   3.734   5.652
 1727DOPC   NC319981  12.409   6.414   4.552
 1727DOPC   PO419982  12.039   6.544   4.502
 1727DOPC   GL119983  12.109   6.704   4.892
 1727DOPC   GL219984  12.389   6.894   4.962
 1727DOPC   C1A19985  12.049   6.694   5.272
 1727DOPC   D2A19986  11.819   6.724   5.602
 1727DOPC   C3A19987  11.689   6.424   5.912
 1727DOPC   C4A19988  11.219   6.394   5.972
 1727DOPC   C1B19989  12.119   7.204   5.052
 1727DOPC   D2B19990  11.849   7.324   5.522
 1727DOPC   C3B19991  12.089   7.524   5.932
 1727DOPC   C4B19992  12.369   7.704   6.192
 1728DOPC   NC319993  18.639   9.104   8.212
 1728DOPC   PO419994  18.539   9.204   7.832
 1728DOPC   GL119995  18.479   9.114   7.442
 1728DOPC   GL219996  18.629   9.214   7.142
 1728DOPC   C1A19997  18.139   9.064   7.262
 1728DOPC   D2A19998  17.939   8.794   6.972
 1728DOPC   C3A19999  17.689   8.444   6.962
 1728DOPC   C4A20000  17.239   8.534   7.182
 1728DOPC   C1B20001  18.649   9.664   6.972
 1728DOPC   D2B20002  18.799   9.684   6.522
 1728DOPC   C3B20003  18.509   9.944   6.282
 1728DOPC   C4B20004  18.229  10.194   6.282
 1729DOPC   NC320005  22.189  -0.276   3.822
 1729DOPC   PO420006  21.779  -0.106   3.832
 1729DOPC   GL120007  21.739  -0.126   4.312
 1729DOPC   GL220008  21.839   0.144   4.622
 1729DOPC   C1A20009  21.689  -0.266   4.752
 1729DOPC   D2A20010  21.799  -0.226   5.212
 1729DOPC   C3A20011  21.929   0.164   5.502
 1729DOPC   C4A20012  21.839   0.384   5.792
 1729DOPC   C1B20013  21.729   0.434   4.942
 1729DOPC   D2B20014  22.029   0.554   5.242
 1729DOPC   C3B20015  22.369   0.144   5.292
 1729DOPC   C4B20016  22.759   0.124   5.422
 1730DOPC   NC320017  20.979   7.674   7.532
 1730DOPC   PO420018  20.979   7.434   7.122
 1730DOPC   GL120019  20.969   7.324   6.742
 1730DOPC   GL220020  20.859   7.504   6.562
 1730DOPC   C1A20021  21.429   7.364   6.452
 1730DOPC   D2A20022  21.759   7.394   6.242
 1730DOPC   C3A20023  21.769   7.214   5.862
 1730DOPC   C4A20024  21.669   7.024   5.532
 1730DOPC   C1B20025  20.789   7.084   6.402
 1730DOPC   D2B20026  20.519   6.754   6.292
 1730DOPC   C3B20027  20.409   6.574   5.862
 1730DOPC   C4B20028  20.099   6.484   5.622
 1731DOPC   NC320029  13.269  15.914   4.542
 1731DOPC   PO420030  13.419  15.644   4.802
 1731DOPC   GL120031  13.259  15.844   5.232
 1731DOPC   GL220032  13.079  15.594   5.452
 1731DOPC   C1A20033  13.109  16.104   5.612
 1731DOPC   D2A20034  13.299  16.344   5.962
 1731DOPC   C3A20035  13.059  16.314   6.422
 1731DOPC   C4A20036  12.769  16.544   6.752
 1731DOPC   C1B20037  13.289  15.504   5.782
 1731DOPC   D2B20038  13.559  15.264   6.052
 1731DOPC   C3B20039  13.559  15.224   6.432
 1731DOPC   C4B20040  13.609  15.614   6.682
 1732DOPC   NC320041   5.909   2.974   8.122
 1732DOPC   PO420042   5.899   3.204   7.692
 1732DOPC   GL120043   5.969   3.234   7.282
 1732DOPC   GL220044   5.999   2.914   7.272
 1732DOPC   C1A20045   6.009   3.274   6.852
 1732DOPC   D2A20046   5.969   3.094   6.422
 1732DOPC   C3A20047   6.309   3.154   6.072
 1732DOPC   C4A20048   6.239   3.564   5.782
 1732DOPC   C1B20049   6.279   2.804   6.852
 1732DOPC   D2B20050   6.259   2.714   6.432
 1732DOPC   C3B20051   6.249   2.374   6.042
 1732DOPC   C4B20052   6.249   1.994   5.822
 1733DOPC   NC320053   4.889  20.754   4.052
 1733DOPC   PO420054   4.979  21.204   4.182
 1733DOPC   GL120055   5.099  21.104   4.512
 1733DOPC   GL220056   5.489  21.054   4.532
 1733DOPC   C1A20057   5.219  21.371   4.872
 1733DOPC   D2A20058   5.059  21.491   5.272
 1733DOPC   C3A20059   5.229  21.621   5.602
 1733DOPC   C4A20060   4.999  21.951   5.822
 1733DOPC   C1B20061   5.549  21.024   5.032
 1733DOPC   D2B20062   5.409  21.124   5.422
 1733DOPC   C3B20063   5.739  21.124   5.682
 1733DOPC   C4B20064   5.949  21.581   5.732
 1734DOPC   NC320065  14.569  23.591   4.382
 1734DOPC   PO420066  14.979  23.711   4.342
 1734DOPC   GL120067  15.099  23.541   4.732
 1734DOPC   GL220068  15.199  23.301   4.762
 1734DOPC   C1A20069  15.029  23.751   5.112
 1734DOPC   D2A20070  14.949  23.721   5.622
 1734DOPC   C3A20071  14.629  23.661   5.892
 1734DOPC   C4A20072  14.639  23.421   6.282
 1734DOPC   C1B20073  15.579  23.631   4.932
 1734DOPC   D2B20074  15.949  23.841   5.162
 1734DOPC   C3B20075  15.889  23.951   5.602
 1734DOPC   C4B20076  15.789  24.301   5.882
 1735DOPC   NC320077  18.789   9.474   3.952
 1735DOPC   PO420078  18.389   9.194   3.922
 1735DOPC   GL120079  18.429   9.264   4.352
 1735DOPC   GL220080  18.389   9.534   4.472
 1735DOPC   C1A20081  18.539   9.194   4.912
 1735DOPC   D2A20082  18.519   9.364   5.322
 1735DOPC   C3A20083  18.959   9.404   5.522
 1735DOPC   C4A20084  19.279   9.274   5.782
 1735DOPC   C1B20085  18.279   9.654   4.992
 1735DOPC   D2B20086  18.539   9.954   5.332
 1735DOPC   C3B20087  18.899   9.894   5.562
 1735DOPC   C4B20088  19.179   9.744   5.842
 1736DOPC   NC320089   4.779  22.401   4.012
 1736DOPC   PO420090   4.569  22.791   4.142
 1736DOPC   GL120091   4.359  22.961   4.512
 1736DOPC   GL220092   4.249  22.681   4.582
 1736DOPC   C1A20093   4.309  22.991   5.032
 1736DOPC   D2A20094   4.079  22.831   5.282
 1736DOPC   C3A20095   4.209  22.411   5.332
 1736DOPC   C4A20096   4.169  22.151   5.682
 1736DOPC   C1B20097   4.439  22.401   4.912
 1736DOPC   D2B20098   4.629  22.721   5.232
 1736DOPC   C3B20099   4.559  22.951   5.612
 1736DOPC   C4B20100   4.489  22.741   6.002
 1737DOPC   NC320101   1.739   1.464   7.542
 1737DOPC   PO420102   1.429   1.504   7.212
 1737DOPC   GL120103   1.249   1.264   6.872
 1737DOPC   GL220104   1.179   1.554   6.812
 1737DOPC   C1A20105   1.109   1.094   6.592
 1737DOPC   D2A20106   0.759   0.794   6.462
 1737DOPC   C3A20107   0.369   0.794   6.402
 1737DOPC   C4A20108   0.021   1.154   6.512
 1737DOPC   C1B20109   1.249   1.614   6.392
 1737DOPC   D2B20110   1.359   1.684   5.842
 1737DOPC   C3B20111   1.329   2.174   5.852
 1737DOPC   C4B20112   1.099   2.534   5.822
 1738DOPC   NC320113   4.309  24.011   3.402
 1738DOPC   PO420114   4.539  24.221   3.802
 1738DOPC   GL120115   4.669  24.081   4.162
 1738DOPC   GL220116   4.759  23.771   4.182
 1738DOPC   C1A20117   4.609  24.021   4.622
 1738DOPC   D2A20118   4.309  23.981   4.932
 1738DOPC   C3A20119   4.289  23.901   5.362
 1738DOPC   C4A20120   3.979  23.761   5.682
 1738DOPC   C1B20121   4.599  23.491   4.582
 1738DOPC   D2B20122   4.679  23.621   4.992
 1738DOPC   C3B20123   4.429  23.421   5.312
 1738DOPC   C4B20124   4.509  23.421   5.722
 1739DOPC   NC320125   4.849  12.454   3.702
 1739DOPC   PO420126   4.979  12.854   3.732
 1739DOPC   GL120127   4.729  13.074   4.042
 1739DOPC   GL220128   4.469  12.894   4.182
 1739DOPC   C1A20129   4.619  13.224   4.552
 1739DOPC   D2A20130   4.799  12.954   4.812
 1739DOPC   C3A20131   5.289  13.064   4.802
 1739DOPC   C4A20132   5.519  13.414   4.942
 1739DOPC   C1B20133   4.719  12.664   4.452
 1739DOPC   D2B20134   4.939  12.484   4.862
 1739DOPC   C3B20135   5.019  12.764   5.202
 1739DOPC   C4B20136   5.189  13.104   5.462
 1740DOPC   NC320137   4.069  16.654   7.512
 1740DOPC   PO420138   4.589  16.594   7.622
 1740DOPC   GL120139   4.709  16.824   7.262
 1740DOPC   GL220140   4.539  17.114   7.242
 1740DOPC   C1A20141   4.889  16.734   6.902
 1740DOPC   D2A20142   5.269  16.784   6.722
 1740DOPC   C3A20143   5.639  16.974   6.632
 1740DOPC   C4A20144   6.099  16.834   6.672
 1740DOPC   C1B20145   4.899  17.234   6.992
 1740DOPC   D2B20146   5.059  17.144   6.482
 1740DOPC   C3B20147   5.469  17.314   6.212
 1740DOPC   C4B20148   5.829  17.544   6.412
 1741DOPC   NC320149   3.589  14.094   3.612
 1741DOPC   PO420150   3.389  14.504   3.702
 1741DOPC   GL120151   3.579  14.554   3.982
 1741DOPC   GL220152   3.609  14.944   4.072
 1741DOPC   C1A20153   3.909  14.434   4.212
 1741DOPC   D2A20154   3.839  14.254   4.612
 1741DOPC   C3A20155   3.509  14.034   4.762
 1741DOPC   C4A20156   3.119  14.314   4.762
 1741DOPC   C1B20157   3.459  15.124   4.422
 1741DOPC   D2B20158   3.419  15.334   4.772
 1741DOPC   C3B20159   2.969  15.354   4.882
 1741DOPC   C4B20160   2.499  15.604   4.872
 1742DOPC   NC320161  14.809   4.414   8.552
 1742DOPC   PO420162  14.679   4.254   8.182
 1742DOPC   GL120163  14.439   4.264   7.762
 1742DOPC   GL220164  14.599   3.944   7.742
 1742DOPC   C1A20165  14.349   4.174   7.352
 1742DOPC   D2A20166  14.089   4.194   6.952
 1742DOPC   C3A20167  13.699   4.284   6.682
 1742DOPC   C4A20168  13.709   4.464   6.302
 1742DOPC   C1B20169  14.749   3.924   7.352
 1742DOPC   D2B20170  14.769   4.164   7.012
 1742DOPC   C3B20171  14.539   4.194   6.642
 1742DOPC   C4B20172  14.299   4.314   6.382
 1743DOPC   NC320173  24.969  22.501   4.292
 1743DOPC   PO420174  25.099  21.961   4.242
 1743DOPC   GL120175  24.839  22.101   4.532
 1743DOPC   GL220176  24.639  22.351   4.592
 1743DOPC   C1A20177  24.679  21.891   4.882
 1743DOPC   D2A20178  24.719  21.561   5.082
 1743DOPC   C3A20179  25.039  21.254   4.942
 1743DOPC   C4A20180  24.909  20.804   5.022
 1743DOPC   C1B20181  24.949  22.371   5.002
 1743DOPC   D2B20182  24.899  22.101   5.312
 1743DOPC   C3B20183  25.179  22.141   5.582
 1743DOPC   C4B20184  25.319  22.391   5.932
 1744DOPC   NC320185   7.649   6.564   3.842
 1744DOPC   PO420186   7.629   6.944   3.732
 1744DOPC   GL120187   7.729   7.054   4.202
 1744DOPC   GL220188   7.509   7.444   4.222
 1744DOPC   C1A20189   7.559   6.894   4.632
 1744DOPC   D2A20190   7.149   7.044   4.862
 1744DOPC   C3A20191   6.709   7.084   4.642
 1744DOPC   C4A20192   6.159   7.064   4.662
 1744DOPC   C1B20193   7.559   7.484   4.572
 1744DOPC   D2B20194   7.429   7.444   5.052
 1744DOPC   C3B20195   7.249   7.804   5.292
 1744DOPC   C4B20196   7.009   8.094   5.572
 1745DOPC   NC320197  12.189   4.954   4.472
 1745DOPC   PO420198  12.649   4.894   4.562
 1745DOPC   GL120199  12.869   5.194   4.742
 1745DOPC   GL220200  12.759   5.444   4.822
 1745DOPC   C1A20201  13.249   5.084   5.022
 1745DOPC   D2A20202  13.459   4.974   5.362
 1745DOPC   C3A20203  13.739   5.024   5.692
 1745DOPC   C4A20204  13.929   4.864   6.062
 1745DOPC   C1B20205  12.819   5.344   5.232
 1745DOPC   D2B20206  12.959   5.364   5.692
 1745DOPC   C3B20207  12.829   5.774   5.962
 1745DOPC   C4B20208  12.829   5.684   6.392
 1746DOPC   NC320209   6.269   2.944   3.832
 1746DOPC   PO420210   5.929   3.064   4.052
 1746DOPC   GL120211   6.129   3.104   4.482
 1746DOPC   GL220212   6.449   3.044   4.602
 1746DOPC   C1A20213   5.939   2.934   4.922
 1746DOPC   D2A20214   6.049   2.484   5.182
 1746DOPC   C3A20215   6.219   2.554   5.542
 1746DOPC   C4A20216   6.579   2.614   5.742
 1746DOPC   C1B20217   6.429   2.764   4.882
 1746DOPC   D2B20218   6.709   2.654   5.212
 1746DOPC   C3B20219   7.039   2.774   5.342
 1746DOPC   C4B20220   7.419   2.494   5.342
 1747DOPC   NC320221  25.279   4.484   2.862
 1747DOPC   PO420222  25.519   4.514   3.152
 1747DOPC   GL120223  25.686   4.534   3.502
 1747DOPC   GL220224  25.656   4.224   3.662
 1747DOPC   C1A20225  25.639   4.624   3.982
 1747DOPC   D2A20226  25.866   5.024   4.152
 1747DOPC   C3A20227  25.836   5.314   4.572
 1747DOPC   C4A20228  25.736   5.304   5.102
 1747DOPC   C1B20229  25.619   4.174   4.132
 1747DOPC   D2B20230  25.439   3.984   4.582
 1747DOPC   C3B20231  25.479   4.234   4.872
 1747DOPC   C4B20232  25.289   4.364   5.222
 1748DOPC   NC320233  15.699  -0.296   8.172
 1748DOPC   PO420234  15.839  -0.216   7.702
 1748DOPC   GL120235  15.849  -0.096   7.252
 1748DOPC   GL220236  15.919   0.284   7.192
 1748DOPC   C1A20237  15.869  -0.266   6.782
 1748DOPC   D2A20238  15.779   0.044   6.562
 1748DOPC   C3A20239  15.599   0.034   6.222
 1748DOPC   C4A20240  15.399   0.334   5.962
 1748DOPC   C1B20241  15.989   0.384   6.812
 1748DOPC   D2B20242  15.829   0.544   6.402
 1748DOPC   C3B20243  15.919   0.414   6.012
 1748DOPC   C4B20244  16.179   0.244   5.742
 1749DOPC   NC320245  17.139  22.031   7.662
 1749DOPC   PO420246  17.509  21.851   7.602
 1749DOPC   GL120247  17.609  21.691   7.152
 1749DOPC   GL220248  17.599  21.431   7.092
 1749DOPC   C1A20249  17.489  21.721   6.722
 1749DOPC   D2A20250  17.329  22.101   6.662
 1749DOPC   C3A20251  17.169  22.511   6.812
 1749DOPC   C4A20252  17.569  22.641   6.882
 1749DOPC   C1B20253  17.349  21.084   7.022
 1749DOPC   D2B20254  17.209  20.804   6.712
 1749DOPC   C3B20255  17.209  20.794   6.232
 1749DOPC   C4B20256  16.979  21.024   5.982
 1750DOPC   NC320257  23.199  12.304   3.122
 1750DOPC   PO420258  23.209  12.254   3.612
 1750DOPC   GL120259  23.229  11.964   4.002
 1750DOPC   GL220260  23.119  12.234   4.202
 1750DOPC   C1A20261  23.089  11.804   4.402
 1750DOPC   D2A20262  23.119  11.614   4.782
 1750DOPC   C3A20263  22.939  11.404   5.042
 1750DOPC   C4A20264  22.749  11.384   5.422
 1750DOPC   C1B20265  23.369  12.214   4.562
 1750DOPC   D2B20266  23.239  12.174   4.972
 1750DOPC   C3B20267  22.939  12.394   5.112
 1750DOPC   C4B20268  22.689  12.284   5.482
 1751DOPC   NC320269  17.989  15.194   8.072
 1751DOPC   PO420270  18.029  15.054   7.612
 1751DOPC   GL120271  17.869  15.174   7.282
 1751DOPC   GL220272  17.449  15.254   7.212
 1751DOPC   C1A20273  17.889  15.164   6.792
 1751DOPC   D2A20274  17.629  15.044   6.342
 1751DOPC   C3A20275  17.339  15.174   6.122
 1751DOPC   C4A20276  17.139  15.394   5.862
 1751DOPC   C1B20277  17.179  15.434   6.922
 1751DOPC   D2B20278  17.049  15.734   6.532
 1751DOPC   C3B20279  16.749  15.664   6.182
 1751DOPC   C4B20280  16.229  15.644   6.062
 1752DOPC   NC320281  23.329   9.714   2.772
 1752DOPC   PO420282  23.609   9.414   2.962
 1752DOPC   GL120283  23.709   9.384   3.422
 1752DOPC   GL220284  23.439   9.544   3.592
 1752DOPC   C1A20285  23.879   9.354   3.752
 1752DOPC   D2A20286  23.939   9.324   4.112
 1752DOPC   C3A20287  24.369   9.084   4.312
 1752DOPC   C4A20288  24.789   9.084   4.532
 1752DOPC   C1B20289  23.309   9.174   3.942
 1752DOPC   D2B20290  23.249   8.724   4.112
 1752DOPC   C3B20291  23.549   8.424   4.322
 1752DOPC   C4B20292  23.789   8.474   4.712
 1753DOPC   NC320293  21.059  23.801   7.412
 1753DOPC   PO420294  20.639  23.581   7.542
 1753DOPC   GL120295  20.609  23.711   7.132
 1753DOPC   GL220296  20.249  23.811   7.182
 1753DOPC   C1A20297  20.759  23.701   6.762
 1753DOPC   D2A20298  20.669  23.661   6.382
 1753DOPC   C3A20299  20.499  23.261   6.482
 1753DOPC   C4A20300  20.459  22.961   6.672
 1753DOPC   C1B20301  20.219  24.151   6.952
 1753DOPC   D2B20302  20.109  24.351   6.542
 1753DOPC   C3B20303  20.359  24.541   6.142
 1753DOPC   C4B20304  20.279  24.751   5.732
 1754DOPC   NC320305  16.949   7.374   4.332
 1754DOPC   PO420306  16.719   7.114   4.622
 1754DOPC   GL120307  16.679   7.024   4.952
 1754DOPC   GL220308  16.379   6.944   5.112
 1754DOPC   C1A20309  16.769   6.704   5.262
 1754DOPC   D2A20310  16.839   6.274   5.202
 1754DOPC   C3A20311  16.939   6.374   5.692
 1754DOPC   C4A20312  17.019   6.594   6.182
 1754DOPC   C1B20313  16.299   6.844   5.492
 1754DOPC   D2B20314  16.079   6.924   5.972
 1754DOPC   C3B20315  16.119   6.534   6.172
 1754DOPC   C4B20316  16.019   6.234   6.492
 1755DOPC   NC320317  22.659   5.484   7.352
 1755DOPC   PO420318  22.869   5.714   7.192
 1755DOPC   GL120319  22.869   5.484   6.812
 1755DOPC   GL220320  22.789   5.184   6.772
 1755DOPC   C1A20321  23.009   5.534   6.472
 1755DOPC   D2A20322  23.029   5.494   6.062
 1755DOPC   C3A20323  23.149   5.854   5.802
 1755DOPC   C4A20324  23.029   5.984   5.432
 1755DOPC   C1B20325  22.649   5.194   6.282
 1755DOPC   D2B20326  22.559   5.264   5.842
 1755DOPC   C3B20327  22.269   5.354   5.422
 1755DOPC   C4B20328  22.049   5.754   5.222
 1756DOPC   NC320329  16.049  10.264   3.862
 1756DOPC   PO420330  16.199  10.134   4.282
 1756DOPC   GL120331  16.429   9.984   4.672
 1756DOPC   GL220332  16.719   9.774   4.762
 1756DOPC   C1A20333  16.509  10.324   4.972
 1756DOPC   D2A20334  16.639  10.684   5.142
 1756DOPC   C3A20335  16.869  10.924   4.822
 1756DOPC   C4A20336  16.989  11.234   4.832
 1756DOPC   C1B20337  16.619   9.894   5.182
 1756DOPC   D2B20338  16.219   9.814   5.482
 1756DOPC   C3B20339  16.259   9.654   5.902
 1756DOPC   C4B20340  16.559   9.364   6.152
 1757DOPC   NC320341  20.609   4.364   3.152
 1757DOPC   PO420342  20.439   4.324   3.512
 1757DOPC   GL120343  20.509   4.574   3.862
 1757DOPC   GL220344  20.799   4.374   3.992
 1757DOPC   C1A20345  20.559   4.784   4.202
 1757DOPC   D2A20346  20.739   4.804   4.642
 1757DOPC   C3A20347  21.029   5.004   4.992
 1757DOPC   C4A20348  21.149   5.234   5.472
 1757DOPC   C1B20349  20.979   4.534   4.312
 1757DOPC   D2B20350  21.069   4.494   4.772
 1757DOPC   C3B20351  21.099   4.114   4.992
 1757DOPC   C4B20352  20.939   3.674   5.052
 1758DOPC   NC320353  24.859   0.664   3.382
 1758DOPC   PO420354  24.439   0.614   3.452
 1758DOPC   GL120355  24.239   0.844   3.912
 1758DOPC   GL220356  24.319   1.124   4.002
 1758DOPC   C1A20357  23.839   0.934   4.242
 1758DOPC   D2A20358  23.689   1.204   4.542
 1758DOPC   C3A20359  24.069   1.264   4.852
 1758DOPC   C4A20360  24.259   1.474   5.202
 1758DOPC   C1B20361  24.269   1.354   4.372
 1758DOPC   D2B20362  24.529   1.464   4.652
 1758DOPC   C3B20363  24.549   1.094   4.912
 1758DOPC   C4B20364  24.529   1.064   5.322
 1759DOPC   NC320365  13.819  18.074   4.632
 1759DOPC   PO420366  14.259  18.104   4.732
 1759DOPC   GL120367  13.999  18.264   5.082
 1759DOPC   GL220368  14.119  18.574   5.262
 1759DOPC   C1A20369  13.739  18.294   5.522
 1759DOPC   D2A20370  13.619  18.574   5.812
 1759DOPC   C3A20371  13.909  18.434   6.262
 1759DOPC   C4A20372  14.019  18.284   6.692
 1759DOPC   C1B20373  14.079  18.634   5.642
 1759DOPC   D2B20374  14.269  18.714   6.112
 1759DOPC   C3B20375  14.259  19.104   6.302
 1759DOPC   C4B20376  14.459  19.524   6.412
 1760DOPC   NC320377   9.959  23.771   3.952
 1760DOPC   PO420378  10.319  24.051   4.072
 1760DOPC   GL120379  10.209  24.101   4.482
 1760DOPC   GL220380  10.409  24.221   4.612
 1760DOPC   C1A20381  10.129  24.051   4.992
 1760DOPC   D2A20382  10.159  23.771   5.352
 1760DOPC   C3A20383  10.149  23.871   5.712
 1760DOPC   C4A20384  10.469  24.061   5.922
 1760DOPC   C1B20385  10.629  24.151   5.012
 1760DOPC   D2B20386  10.479  24.141   5.452
 1760DOPC   C3B20387  10.279  24.471   5.752
 1760DOPC   C4B20388  10.009  24.691   5.982
 1761DOPC   NC320389  15.119  21.004   3.652
 1761DOPC   PO420390  15.399  21.324   3.922
 1761DOPC   GL120391  15.609  21.054   4.302
 1761DOPC   GL220392  15.549  20.844   4.542
 1761DOPC   C1A20393  15.969  21.014   4.652
 1761DOPC   D2A20394  15.789  20.964   5.092
 1761DOPC   C3A20395  15.459  20.804   5.402
 1761DOPC   C4A20396  15.549  20.624   5.662
 1761DOPC   C1B20397  15.599  20.474   4.742
 1761DOPC   D2B20398  15.699  20.444   5.112
 1761DOPC   C3B20399  15.689  20.134   5.412
 1761DOPC   C4B20400  15.639  20.144   5.832
 1762DOPC   NC320401  18.819  11.134   4.172
 1762DOPC   PO420402  18.799  11.514   4.232
 1762DOPC   GL120403  18.829  11.464   4.672
 1762DOPC   GL220404  18.649  11.204   4.642
 1762DOPC   C1A20405  18.989  11.644   4.952
 1762DOPC   D2A20406  19.129  11.744   5.392
 1762DOPC   C3A20407  18.999  11.444   5.712
 1762DOPC   C4A20408  18.999  10.984   5.832
 1762DOPC   C1B20409  18.929  11.074   4.932
 1762DOPC   D2B20410  19.039  11.244   5.262
 1762DOPC   C3B20411  18.689  11.554   5.362
 1762DOPC   C4B20412  18.459  11.694   5.032
 1763DOPC   NC320413  21.389  18.224   3.182
 1763DOPC   PO420414  21.469  18.514   3.612
 1763DOPC   GL120415  21.449  18.664   3.982
 1763DOPC   GL220416  21.719  18.694   4.092
 1763DOPC   C1A20417  21.229  18.714   4.392
 1763DOPC   D2A20418  20.879  18.564   4.732
 1763DOPC   C3A20419  20.899  18.704   5.112
 1763DOPC   C4A20420  20.809  19.134   5.292
 1763DOPC   C1B20421  21.699  18.554   4.572
 1763DOPC   D2B20422  21.389  18.644   4.882
 1763DOPC   C3B20423  21.159  19.084   4.852
 1763DOPC   C4B20424  21.139  19.254   4.552
 1764DOPC   NC320425   3.689   4.014   3.602
 1764DOPC   PO420426   3.349   3.834   3.912
 1764DOPC   GL120427   3.149   3.884   4.302
 1764DOPC   GL220428   2.829   3.754   4.202
 1764DOPC   C1A20429   3.149   3.534   4.692
 1764DOPC   D2A20430   3.029   3.364   5.012
 1764DOPC   C3A20431   2.889   3.244   5.432
 1764DOPC   C4A20432   2.849   2.904   5.752
 1764DOPC   C1B20433   2.689   3.384   4.492
 1764DOPC   D2B20434   2.319   3.364   4.672
 1764DOPC   C3B20435   2.229   3.154   5.062
 1764DOPC   C4B20436   2.399   3.184   5.442
 1765DOPC   NC320437   9.349   5.334   7.962
 1765DOPC   PO420438   9.049   5.094   7.852
 1765DOPC   GL120439   9.269   5.194   7.472
 1765DOPC   GL220440   9.259   4.914   7.442
 1765DOPC   C1A20441   8.979   5.314   7.242
 1765DOPC   D2A20442   9.019   5.234   6.712
 1765DOPC   C3A20443   8.629   5.244   6.442
 1765DOPC   C4A20444   8.229   4.954   6.622
 1765DOPC   C1B20445   9.299   4.994   7.042
 1765DOPC   D2B20446   9.459   5.064   6.652
 1765DOPC   C3B20447   9.239   4.854   6.392
 1765DOPC   C4B20448   8.899   4.794   6.252
 1766DOPC   NC320449  23.439  20.714   3.592
 1766DOPC   PO420450  23.259  21.094   3.752
 1766DOPC   GL120451  23.109  21.244   4.152
 1766DOPC   GL220452  23.329  21.134   4.272
 1766DOPC   C1A20453  23.049  21.334   4.642
 1766DOPC   D2A20454  22.789  21.411   4.942
 1766DOPC   C3A20455  22.759  21.811   5.052
 1766DOPC   C4A20456  23.029  22.021   5.302
 1766DOPC   C1B20457  23.159  20.824   4.642
 1766DOPC   D2B20458  23.149  20.664   5.132
 1766DOPC   C3B20459  22.909  20.864   5.362
 1766DOPC   C4B20460  22.559  21.044   5.642
 1767DOPC   NC320461   5.529  10.814   3.552
 1767DOPC   PO420462   5.679  10.464   3.352
 1767DOPC   GL120463   5.809  10.354   3.882
 1767DOPC   GL220464   5.579  10.614   4.052
 1767DOPC   C1A20465   5.909  10.304   4.332
 1767DOPC   D2A20466   5.879  10.524   4.682
 1767DOPC   C3A20467   5.689  10.274   4.902
 1767DOPC   C4A20468   5.499  10.114   5.292
 1767DOPC   C1B20469   5.389  10.714   4.432
 1767DOPC   D2B20470   5.449  10.794   4.932
 1767DOPC   C3B20471   5.139  10.494   5.122
 1767DOPC   C4B20472   5.029  10.274   5.462
 1768DOPC   NC320473   1.759   6.114   3.432
 1768DOPC   PO420474   1.669   6.574   3.422
 1768DOPC   GL120475   1.829   6.484   3.862
 1768DOPC   GL220476   1.879   6.244   3.902
 1768DOPC   C1A20477   1.789   6.624   4.202
 1768DOPC   D2A20478   1.869   6.824   4.612
 1768DOPC   C3A20479   1.839   7.174   4.902
 1768DOPC   C4A20480   1.439   7.224   4.802
 1768DOPC   C1B20481   2.029   6.214   4.302
 1768DOPC   D2B20482   2.069   6.284   4.662
 1768DOPC   C3B20483   1.719   6.014   5.022
 1768DOPC   C4B20484   1.369   5.744   4.792
 1769DOPC   NC320485  16.059  23.071   3.942
 1769DOPC   PO420486  16.429  23.241   3.812
 1769DOPC   GL120487  16.519  23.101   4.272
 1769DOPC   GL220488  16.269  23.061   4.512
 1769DOPC   C1A20489  16.759  23.051   4.672
 1769DOPC   D2A20490  16.939  22.951   5.182
 1769DOPC   C3A20491  17.249  22.861   5.622
 1769DOPC   C4A20492  17.549  22.731   5.892
 1769DOPC   C1B20493  16.299  23.191   4.942
 1769DOPC   D2B20494  16.489  23.101   5.462
 1769DOPC   C3B20495  16.859  23.301   5.632
 1769DOPC   C4B20496  17.279  23.351   5.632
 1770DOPC   NC320497   0.439   9.284   6.972
 1770DOPC   PO420498   0.179   8.904   6.962
 1770DOPC   GL120499   0.119   9.004   6.592
 1770DOPC   GL220500   0.219   9.314   6.412
 1770DOPC   C1A20501   0.049   8.894   6.172
 1770DOPC   D2A20502   0.359   8.774   5.902
 1770DOPC   C3A20503   0.619   8.494   5.642
 1770DOPC   C4A20504   0.569   8.354   5.222
 1770DOPC   C1B20505   0.549   9.424   6.052
 1770DOPC   D2B20506   0.839   9.404   5.672
 1770DOPC   C3B20507   1.189   9.434   5.512
 1770DOPC   C4B20508   1.519   9.434   5.272
 1771DOPC   NC320509   2.209   1.514   3.312
 1771DOPC   PO420510   2.149   1.764   3.622
 1771DOPC   GL120511   2.119   1.814   4.052
 1771DOPC   GL220512   2.279   1.654   4.182
 1771DOPC   C1A20513   1.789   1.884   4.372
 1771DOPC   D2A20514   1.779   1.924   4.732
 1771DOPC   C3A20515   2.129   1.844   4.982
 1771DOPC   C4A20516   2.259   2.124   5.262
 1771DOPC   C1B20517   2.009   1.524   4.592
 1771DOPC   D2B20518   1.799   1.274   4.982
 1771DOPC   C3B20519   1.989   1.074   5.322
 1771DOPC   C4B20520   2.179   1.274   5.752
 1772DOPC   NC320521   6.359  23.341   7.862
 1772DOPC   PO420522   6.759  23.361   7.652
 1772DOPC   GL120523   6.829  23.011   7.332
 1772DOPC   GL220524   7.119  23.071   7.052
 1772DOPC   C1A20525   6.949  22.601   7.002
 1772DOPC   D2A20526   7.199  22.491   6.592
 1772DOPC   C3A20527   7.039  22.481   6.142
 1772DOPC   C4A20528   6.849  22.301   5.742
 1772DOPC   C1B20529   7.119  23.321   6.682
 1772DOPC   D2B20530   6.929  23.511   6.442
 1772DOPC   C3B20531   6.539  23.271   6.482
 1772DOPC   C4B20532   6.199  23.411   6.282
 1773DOPC   NC320533  20.719  18.404   3.602
 1773DOPC   PO420534  21.069  18.254   3.512
 1773DOPC   GL120535  21.089  18.274   3.922
 1773DOPC   GL220536  21.459  18.214   4.162
 1773DOPC   C1A20537  20.779  18.414   4.272
 1773DOPC   D2A20538  20.349  18.394   4.432
 1773DOPC   C3A20539  20.449  18.194   4.772
 1773DOPC   C4A20540  20.579  18.374   5.222
 1773DOPC   C1B20541  21.199  18.244   4.562
 1773DOPC   D2B20542  21.109  18.174   5.022
 1773DOPC   C3B20543  21.219  18.434   5.332
 1773DOPC   C4B20544  21.739  18.524   5.272
 1774DOPC   NC320545  14.169   0.224   4.312
 1774DOPC   PO420546  14.349  -0.086   4.352
 1774DOPC   GL120547  14.619   0.074   4.582
 1774DOPC   GL220548  14.499   0.454   4.682
 1774DOPC   C1A20549  14.639   0.014   5.052
 1774DOPC   D2A20550  14.549  -0.156   5.412
 1774DOPC   C3A20551  14.579  -0.016   5.832
 1774DOPC   C4A20552  14.549   0.234   6.182
 1774DOPC   C1B20553  14.569   0.474   5.092
 1774DOPC   D2B20554  14.509   0.324   5.502
 1774DOPC   C3B20555  14.389   0.634   5.902
 1774DOPC   C4B20556  14.359   0.664   6.372
 1775DOPC   NC320557  15.099  20.984   4.212
 1775DOPC   PO420558  14.839  21.204   4.362
 1775DOPC   GL120559  14.809  21.174   4.772
 1775DOPC   GL220560  14.519  21.294   4.892
 1775DOPC   C1A20561  14.949  21.164   5.232
 1775DOPC   D2A20562  14.679  21.114   5.562
 1775DOPC   C3A20563  14.279  21.084   5.412
 1775DOPC   C4A20564  14.209  20.874   5.022
 1775DOPC   C1B20565  14.699  21.561   5.182
 1775DOPC   D2B20566  14.969  21.621   5.492
 1775DOPC   C3B20567  14.699  21.531   5.872
 1775DOPC   C4B20568  14.679  21.601   6.322
 1776DOPC   NC320569  10.719   5.694   8.162
 1776DOPC   PO420570  10.439   5.854   7.872
 1776DOPC   GL120571  10.409   5.604   7.472
 1776DOPC   GL220572  10.089   5.604   7.462
 1776DOPC   C1A20573  10.459   5.344   7.172
 1776DOPC   D2A20574  10.489   5.284   6.672
 1776DOPC   C3A20575  10.239   5.684   6.462
 1776DOPC   C4A20576  10.009   5.854   6.202
 1776DOPC   C1B20577  10.329   5.934   7.042
 1776DOPC   D2B20578  10.089   6.134   6.692
 1776DOPC   C3B20579   9.879   6.344   6.672
 1776DOPC   C4B20580   9.679   6.634   6.912
 1777DOPC   NC320581  22.339  21.034   3.572
 1777DOPC   PO420582  22.119  20.614   3.532
 1777DOPC   GL120583  22.139  20.664   3.992
 1777DOPC   GL220584  22.329  20.904   4.132
 1777DOPC   C1A20585  22.289  20.434   4.372
 1777DOPC   D2A20586  22.249  20.094   4.632
 1777DOPC   C3A20587  22.359  20.004   5.032
 1777DOPC   C4A20588  22.239  20.014   5.422
 1777DOPC   C1B20589  22.629  20.964   4.402
 1777DOPC   D2B20590  22.739  20.614   4.512
 1777DOPC   C3B20591  22.429  20.524   4.862
 1777DOPC   C4B20592  22.119  20.744   4.772
 1778DOPC   NC320593  15.669  24.631   3.942
 1778DOPC   PO420594  16.079  24.481   3.992
 1778DOPC   GL120595  16.369  24.561   4.232
 1778DOPC   GL220596  16.799  24.481   4.392
 1778DOPC   C1A20597  16.449  24.371   4.762
 1778DOPC   D2A20598  16.279  24.271   5.182
 1778DOPC   C3A20599  16.379  23.971   5.512
 1778DOPC   C4A20600  16.719  23.821   5.562
 1778DOPC   C1B20601  16.939  24.461   4.862
 1778DOPC   D2B20602  16.819  24.261   5.192
 1778DOPC   C3B20603  16.749  24.411   5.552
 1778DOPC   C4B20604  16.289  24.401   5.722
 1779DOPC   NC320605   7.749   2.694   3.642
 1779DOPC   PO420606   8.059   2.974   3.842
 1779DOPC   GL120607   7.889   3.124   4.302
 1779DOPC   GL220608   7.809   3.454   4.412
 1779DOPC   C1A20609   7.679   2.864   4.682
 1779DOPC   D2A20610   7.799   2.654   5.042
 1779DOPC   C3A20611   7.969   2.794   5.462
 1779DOPC   C4A20612   8.339   2.604   5.592
 1779DOPC   C1B20613   8.119   3.454   4.692
 1779DOPC   D2B20614   8.179   3.564   5.112
 1779DOPC   C3B20615   7.889   3.354   5.372
 1779DOPC   C4B20616   7.549   3.424   5.772
 1780DOPC   NC320617   3.469  17.814   3.992
 1780DOPC   PO420618   3.829  17.654   4.062
 1780DOPC   GL120619   3.939  17.554   4.452
 1780DOPC   GL220620   4.239  17.764   4.672
 1780DOPC   C1A20621   3.719  17.314   4.762
 1780DOPC   D2A20622   3.859  17.134   5.232
 1780DOPC   C3A20623   3.889  17.464   5.562
 1780DOPC   C4A20624   3.809  17.714   5.992
 1780DOPC   C1B20625   4.529  17.624   5.122
 1780DOPC   D2B20626   4.359  17.484   5.582
 1780DOPC   C3B20627   4.609  17.604   5.832
 1780DOPC   C4B20628   4.789  18.024   6.032
 1781DOPC   NC320629   0.359  14.124   4.002
 1781DOPC   PO420630   0.249  14.574   3.882
 1781DOPC   GL120631   0.119  14.404   4.332
 1781DOPC   GL220632   0.299  14.094   4.482
 1781DOPC   C1A20633  -0.079  14.444   4.652
 1781DOPC   D2A20634  -0.209  14.584   5.112
 1781DOPC   C3A20635  -0.399  14.844   5.312
 1781DOPC   C4A20636  -0.479  15.204   5.562
 1781DOPC   C1B20637   0.369  14.424   4.832
 1781DOPC   D2B20638   0.349  14.734   5.162
 1781DOPC   C3B20639   0.319  14.564   5.512
 1781DOPC   C4B20640  -0.029  14.714   5.612
 1782DOPC   NC320641  21.409   2.424   7.842
 1782DOPC   PO420642  21.499   2.004   7.782
 1782DOPC   GL120643  21.349   2.154   7.312
 1782DOPC   GL220644  21.229   1.954   6.972
 1782DOPC   C1A20645  21.119   2.454   7.032
 1782DOPC   D2A20646  20.979   2.684   6.512
 1782DOPC   C3A20647  20.709   2.434   6.342
 1782DOPC   C4A20648  20.739   2.414   5.842
 1782DOPC   C1B20649  21.229   2.214   6.612
 1782DOPC   D2B20650  21.309   2.374   6.212
 1782DOPC   C3B20651  21.089   2.734   6.002
 1782DOPC   C4B20652  20.679   2.974   6.012
 1783DOPC   NC320653  19.759   9.194   4.012
 1783DOPC   PO420654  19.709   8.884   4.202
 1783DOPC   GL120655  19.579   8.344   4.292
 1783DOPC   GL220656  19.849   8.244   4.042
 1783DOPC   C1A20657  19.429   8.054   4.682
 1783DOPC   D2A20658  19.599   7.714   4.762
 1783DOPC   C3A20659  19.699   7.524   5.152
 1783DOPC   C4A20660  19.819   7.364   5.512
 1783DOPC   C1B20661  20.029   8.254   4.492
 1783DOPC   D2B20662  20.109   8.364   4.942
 1783DOPC   C3B20663  20.159   8.074   5.352
 1783DOPC   C4B20664  19.959   7.884   5.662
 1784DOPC   NC320665   8.589  23.071   4.162
 1784DOPC   PO420666   8.239  22.941   4.392
 1784DOPC   GL120667   8.229  23.071   4.832
 1784DOPC   GL220668   7.949  23.181   5.002
 1784DOPC   C1A20669   8.479  23.061   5.182
 1784DOPC   D2A20670   8.819  22.861   5.482
 1784DOPC   C3A20671   8.709  22.731   6.012
 1784DOPC   C4A20672   8.799  22.471   6.322
 1784DOPC   C1B20673   7.919  23.131   5.342
 1784DOPC   D2B20674   8.089  23.061   5.732
 1784DOPC   C3B20675   8.479  23.191   5.812
 1784DOPC   C4B20676   8.929  23.231   5.932
 1785DOPC   NC320677  11.029  16.544   4.842
 1785DOPC   PO420678  10.729  16.844   4.742
 1785DOPC   GL120679  10.779  16.884   5.132
 1785DOPC   GL220680  10.759  17.214   5.202
 1785DOPC   C1A20681  10.829  16.604   5.432
 1785DOPC   D2A20682  10.949  16.304   5.702
 1785DOPC   C3A20683  10.799  16.164   6.132
 1785DOPC   C4A20684  10.369  16.214   6.182
 1785DOPC   C1B20685  10.739  17.084   5.672
 1785DOPC   D2B20686  10.699  16.724   5.952
 1785DOPC   C3B20687  10.449  16.684   6.172
 1785DOPC   C4B20688  10.089  16.674   6.422
 1786DOPC   NC320689   2.919  12.984   3.612
 1786DOPC   PO420690   3.179  12.544   3.542
 1786DOPC   GL120691   3.089  12.654   3.922
 1786DOPC   GL220692   3.189  12.484   4.222
 1786DOPC   C1A20693   2.859  12.834   4.242
 1786DOPC   D2A20694   2.569  12.854   4.612
 1786DOPC   C3A20695   2.409  12.434   4.702
 1786DOPC   C4A20696   2.509  12.204   5.132
 1786DOPC   C1B20697   3.449  12.374   4.532
 1786DOPC   D2B20698   3.509  12.474   4.962
 1786DOPC   C3B20699   3.839  12.314   5.132
 1786DOPC   C4B20700   4.209  12.234   4.822
 1787DOPC   NC320701  16.189  22.131   3.912
 1787DOPC   PO420702  16.039  21.751   4.102
 1787DOPC   GL120703  15.949  22.091   4.392
 1787DOPC   GL220704  15.859  21.981   4.672
 1787DOPC   C1A20705  16.159  22.371   4.642
 1787DOPC   D2A20706  16.259  22.181   5.032
 1787DOPC   C3A20707  16.609  22.091   5.152
 1787DOPC   C4A20708  17.029  22.261   5.072
 1787DOPC   C1B20709  15.679  21.941   5.082
 1787DOPC   D2B20710  15.499  21.751   5.432
 1787DOPC   C3B20711  15.699  21.861   5.872
 1787DOPC   C4B20712  15.869  21.831   6.332
 1788DOPC   NC320713  19.619  25.301   3.422
 1788DOPC   PO420714  19.709  25.101   3.762
 1788DOPC   GL120715  19.549  24.941   4.132
 1788DOPC   GL220716  19.259  25.091   4.292
 1788DOPC   C1A20717  19.669  24.851   4.572
 1788DOPC   D2A20718  19.599  24.761   4.942
 1788DOPC   C3A20719  19.279  24.851   5.232
 1788DOPC   C4A20720  19.049  24.671   5.542
 1788DOPC   C1B20721  19.179  24.861   4.752
 1788DOPC   D2B20722  18.899  24.701   5.022
 1788DOPC   C3B20723  18.539  24.841   4.902
 1788DOPC   C4B20724  18.189  24.921   4.722
 1789DOPC   NC320725  14.599  21.851   4.182
 1789DOPC   PO420726  14.529  22.281   4.112
 1789DOPC   GL120727  14.279  22.251   4.452
 1789DOPC   GL220728  14.309  21.981   4.652
 1789DOPC   C1A20729  14.169  22.431   4.832
 1789DOPC   D2A20730  13.969  22.731   5.042
 1789DOPC   C3A20731  13.809  22.531   5.412
 1789DOPC   C4A20732  13.669  22.261   5.702
 1789DOPC   C1B20733  14.429  22.051   5.072
 1789DOPC   D2B20734  14.589  21.981   5.492
 1789DOPC   C3B20735  14.799  22.361   5.612
 1789DOPC   C4B20736  14.909  22.791   5.592
 1790DOPC   NC320737   5.409   7.184   7.562
 1790DOPC   PO420738   5.789   7.074   7.342
 1790DOPC   GL120739   5.879   7.094   6.902
 1790DOPC   GL220740   5.819   6.774   6.662
 1790DOPC   C1A20741   5.979   7.404   6.662
 1790DOPC   D2A20742   6.089   7.644   6.282
 1790DOPC   C3A20743   6.069   7.694   5.852
 1790DOPC   C4A20744   6.219   7.474   5.532
 1790DOPC   C1B20745   5.949   6.594   6.412
 1790DOPC   D2B20746   6.199   6.524   6.012
 1790DOPC   C3B20747   6.299   6.934   5.782
 1790DOPC   C4B20748   6.439   7.334   6.032
 1791DOPC   NC320749  24.079  25.291   3.802
 1791DOPC   PO420750  23.799  24.971   3.852
 1791DOPC   GL120751  23.879  24.971   4.202
 1791DOPC   GL220752  24.249  24.991   4.192
 1791DOPC   C1A20753  24.099  25.091   4.652
 1791DOPC   D2A20754  24.339  24.971   5.012
 1791DOPC   C3A20755  24.459  24.861   5.422
 1791DOPC   C4A20756  24.549  24.451   5.652
 1791DOPC   C1B20757  24.369  24.701   4.512
 1791DOPC   D2B20758  24.619  24.561   4.862
 1791DOPC   C3B20759  24.759  24.181   4.582
 1791DOPC   C4B20760  24.869  23.621   4.462
 1792DOPC   NC320761   4.529   1.034   3.502
 1792DOPC   PO420762   4.269   1.404   3.572
 1792DOPC   GL120763   4.099   1.454   3.992
 1792DOPC   GL220764   4.139   1.694   4.092
 1792DOPC   C1A20765   3.819   1.224   4.262
 1792DOPC   D2A20766   3.799   1.434   4.692
 1792DOPC   C3A20767   3.719   1.074   5.012
 1792DOPC   C4A20768   3.269   0.894   5.112
 1792DOPC   C1B20769   4.229   1.444   4.512
 1792DOPC   D2B20770   4.249   1.434   4.892
 1792DOPC   C3B20771   3.999   1.704   5.112
 1792DOPC   C4B20772   3.519   1.834   5.032
 1793DOPC   NC320773  24.629   6.644   3.062
 1793DOPC   PO420774  24.329   6.824   3.432
 1793DOPC   GL120775  24.189   7.054   3.822
 1793DOPC   GL220776  23.849   7.244   3.872
 1793DOPC   C1A20777  24.339   7.304   4.072
 1793DOPC   D2A20778  24.589   7.174   4.452
 1793DOPC   C3A20779  24.569   7.544   4.722
 1793DOPC   C4A20780  24.849   7.914   4.802
 1793DOPC   C1B20781  23.799   7.224   4.342
 1793DOPC   D2B20782  23.849   7.314   4.792
 1793DOPC   C3B20783  23.559   7.424   5.162
 1793DOPC   C4B20784  23.359   7.654   5.512
 1794DOPC   NC320785   2.709  18.964   8.042
 1794DOPC   PO420786   3.079  18.884   7.872
 1794DOPC   GL120787   3.239  19.224   7.572
 1794DOPC   GL220788   3.499  19.294   7.572
 1794DOPC   C1A20789   3.209  19.274   7.112
 1794DOPC   D2A20790   2.999  19.274   6.662
 1794DOPC   C3A20791   3.119  19.514   6.412
 1794DOPC   C4A20792   3.159  19.304   5.962
 1794DOPC   C1B20793   3.639  19.464   7.202
 1794DOPC   D2B20794   3.579  19.564   6.742
 1794DOPC   C3B20795   3.589  19.384   6.342
 1794DOPC   C4B20796   3.779  19.254   5.972
 1795DOPC   NC320797   2.789   9.324   3.122
 1795DOPC   PO420798   2.929   8.964   2.882
 1795DOPC   GL120799   3.169   9.034   3.272
 1795DOPC   GL220800   3.489   9.154   3.182
 1795DOPC   C1A20801   3.179   8.754   3.602
 1795DOPC   D2A20802   3.019   8.544   3.942
 1795DOPC   C3A20803   3.049   8.574   4.422
 1795DOPC   C4A20804   3.169   8.934   4.612
 1795DOPC   C1B20805   3.399   9.214   3.692
 1795DOPC   D2B20806   3.199   9.064   4.032
 1795DOPC   C3B20807   2.769   8.984   4.222
 1795DOPC   C4B20808   2.419   8.764   4.142
 1796DOPC   NC320809   4.259  21.521   8.402
 1796DOPC   PO420810   4.269  21.811   8.082
 1796DOPC   GL120811   4.239  21.831   7.702
 1796DOPC   GL220812   4.369  22.111   7.662
 1796DOPC   C1A20813   4.239  21.551   7.232
 1796DOPC   D2A20814   4.469  21.214   7.042
 1796DOPC   C3A20815   4.799  21.354   6.822
 1796DOPC   C4A20816   5.079  21.691   6.792
 1796DOPC   C1B20817   4.229  22.061   7.252
 1796DOPC   D2B20818   4.019  21.921   6.962
 1796DOPC   C3B20819   4.009  21.661   6.622
 1796DOPC   C4B20820   3.769  21.381   6.312
 1797DOPC   NC320821   2.819  18.324   3.562
 1797DOPC   PO420822   3.089  18.424   3.952
 1797DOPC   GL120823   3.039  18.244   4.312
 1797DOPC   GL220824   3.089  17.924   4.402
 1797DOPC   C1A20825   3.029  18.344   4.772
 1797DOPC   D2A20826   2.829  18.404   5.182
 1797DOPC   C3A20827   3.029  18.284   5.562
 1797DOPC   C4A20828   3.089  18.124   6.012
 1797DOPC   C1B20829   2.939  17.854   4.932
 1797DOPC   D2B20830   2.959  17.854   5.352
 1797DOPC   C3B20831   3.379  17.894   5.632
 1797DOPC   C4B20832   3.809  17.954   5.532
 1798DOPC   NC320833   8.099   4.864   3.792
 1798DOPC   PO420834   7.929   4.524   4.092
 1798DOPC   GL120835   7.689   4.314   4.372
 1798DOPC   GL220836   7.719   3.964   4.552
 1798DOPC   C1A20837   7.539   4.284   4.862
 1798DOPC   D2A20838   7.629   4.464   5.322
 1798DOPC   C3A20839   7.379   4.964   5.292
 1798DOPC   C4A20840   7.329   5.264   4.902
 1798DOPC   C1B20841   7.819   3.854   4.962
 1798DOPC   D2B20842   8.019   4.174   5.152
 1798DOPC   C3B20843   7.959   4.154   5.692
 1798DOPC   C4B20844   8.129   4.144   6.082
 1799DOPC   NC320845  17.069   1.634   4.282
 1799DOPC   PO420846  16.909   1.234   4.232
 1799DOPC   GL120847  16.769   1.254   4.602
 1799DOPC   GL220848  16.549   1.024   4.652
 1799DOPC   C1A20849  16.819   1.184   5.092
 1799DOPC   D2A20850  17.159   1.104   5.392
 1799DOPC   C3A20851  17.419   1.314   5.672
 1799DOPC   C4A20852  17.449   1.664   5.822
 1799DOPC   C1B20853  16.839   0.774   4.722
 1799DOPC   D2B20854  17.219   0.914   4.922
 1799DOPC   C3B20855  17.589   0.684   4.812
 1799DOPC   C4B20856  18.089   0.714   4.922
 1800DOPC   NC320857  19.259  13.914   4.042
 1800DOPC   PO420858  19.439  13.494   3.802
 1800DOPC   GL120859  19.499  13.434   4.232
 1800DOPC   GL220860  19.399  13.134   4.322
 1800DOPC   C1A20861  19.489  13.464   4.752
 1800DOPC   D2A20862  19.569  13.334   5.132
 1800DOPC   C3A20863  19.569  12.904   5.252
 1800DOPC   C4A20864  19.609  12.664   5.582
 1800DOPC   C1B20865  19.639  12.944   4.672
 1800DOPC   D2B20866  19.969  12.804   4.942
 1800DOPC   C3B20867  20.019  13.104   5.412
 1800DOPC   C4B20868  20.199  13.244   5.772
 1801DOPC   NC320869  23.359  10.444   2.562
 1801DOPC   PO420870  23.659  10.084   2.742
 1801DOPC   GL120871  23.969  10.164   3.142
 1801DOPC   GL220872  23.799  10.314   3.402
 1801DOPC   C1A20873  24.089   9.744   3.432
 1801DOPC   D2A20874  24.289   9.634   3.772
 1801DOPC   C3A20875  24.629   9.534   3.942
 1801DOPC   C4A20876  24.799   9.214   3.922
 1801DOPC   C1B20877  23.909  10.074   3.822
 1801DOPC   D2B20878  23.939   9.964   4.282
 1801DOPC   C3B20879  24.229  10.174   4.532
 1801DOPC   C4B20880  24.329  10.334   5.002
 1802DOPC   NC320881   0.529   1.984   7.742
 1802DOPC   PO420882   0.169   1.714   7.552
 1802DOPC   GL120883   0.149   1.544   7.152
 1802DOPC   GL220884  -0.199   1.474   7.232
 1802DOPC   C1A20885   0.289   1.764   6.802
 1802DOPC   D2A20886   0.269   2.134   6.412
 1802DOPC   C3A20887   0.189   2.004   6.002
 1802DOPC   C4A20888  -0.109   1.694   5.792
 1802DOPC   C1B20889  -0.179   1.534   6.782
 1802DOPC   D2B20890  -0.419   1.554   6.452
 1802DOPC   C3B20891  -0.389   1.254   6.172
 1802DOPC   C4B20892  -0.019   1.134   6.032
 1803DOPC   NC320893  10.209  18.854   4.732
 1803DOPC   PO420894   9.839  18.734   4.812
 1803DOPC   GL120895   9.719  18.774   5.252
 1803DOPC   GL220896   9.909  18.624   5.452
 1803DOPC   C1A20897   9.409  18.794   5.592
 1803DOPC   D2A20898   9.379  18.914   6.022
 1803DOPC   C3A20899   9.399  18.964   6.502
 1803DOPC   C4A20900   9.719  18.974   6.792
 1803DOPC   C1B20901   9.689  18.304   5.652
 1803DOPC   D2B20902   9.869  18.034   5.972
 1803DOPC   C3B20903  10.389  17.924   6.042
 1803DOPC   C4B20904  10.709  17.694   6.072
 1804DOPC   NC320905   7.039  20.854   4.582
 1804DOPC   PO420906   7.359  20.384   4.692
 1804DOPC   GL120907   6.959  20.514   4.972
 1804DOPC   GL220908   6.639  20.474   4.732
 1804DOPC   C1A20909   6.909  20.634   5.382
 1804DOPC   D2A20910   6.789  20.764   5.732
 1804DOPC   C3A20911   6.529  20.644   5.982
 1804DOPC   C4A20912   6.119  20.794   6.262
 1804DOPC   C1B20913   6.579  20.244   5.162
 1804DOPC   D2B20914   6.739  19.884   5.312
 1804DOPC   C3B20915   6.639  19.744   5.762
 1804DOPC   C4B20916   6.509  19.634   6.202
 1805DOPC   NC320917   8.609  20.044   4.662
 1805DOPC   PO420918   8.919  20.374   4.532
 1805DOPC   GL120919   9.089  20.624   4.832
 1805DOPC   GL220920   9.069  20.904   4.832
 1805DOPC   C1A20921   9.219  20.484   5.282
 1805DOPC   D2A20922   9.259  20.324   5.742
 1805DOPC   C3A20923   9.149  20.564   6.082
 1805DOPC   C4A20924   9.219  20.424   6.462
 1805DOPC   C1B20925   8.909  20.974   5.262
 1805DOPC   D2B20926   8.959  20.884   5.702
 1805DOPC   C3B20927   8.719  21.164   5.882
 1805DOPC   C4B20928   8.359  21.184   6.162
 1806DOPC   NC320929  24.649  21.284   7.352
 1806DOPC   PO420930  24.359  21.074   7.262
 1806DOPC   GL120931  24.549  20.884   6.952
 1806DOPC   GL220932  24.539  20.594   6.932
 1806DOPC   C1A20933  24.909  20.724   6.592
 1806DOPC   D2A20934  24.829  20.654   6.152
 1806DOPC   C3A20935  25.199  20.474   5.962
 1806DOPC   C4A20936  25.459  20.304   5.702
 1806DOPC   C1B20937  24.529  20.334   6.502
 1806DOPC   D2B20938  24.319  20.324   6.102
 1806DOPC   C3B20939  24.049  20.354   5.822
 1806DOPC   C4B20940  23.909  20.764   5.682
 1807DOPC   NC320941   3.409  10.044   3.362
 1807DOPC   PO420942   3.939  10.064   3.272
 1807DOPC   GL120943   4.059   9.914   3.682
 1807DOPC   GL220944   3.849   9.974   3.832
 1807DOPC   C1A20945   4.239   9.894   4.152
 1807DOPC   D2A20946   4.359   9.784   4.542
 1807DOPC   C3A20947   4.139   9.594   4.782
 1807DOPC   C4A20948   3.829   9.464   5.222
 1807DOPC   C1B20949   3.699   9.794   4.242
 1807DOPC   D2B20950   3.559   9.574   4.582
 1807DOPC   C3B20951   3.169   9.434   4.702
 1807DOPC   C4B20952   2.869   9.574   5.092
 1808DOPC   NC320953   4.989  15.964   8.082
 1808DOPC   PO420954   5.009  15.824   7.702
 1808DOPC   GL120955   5.259  15.714   7.302
 1808DOPC   GL220956   5.549  15.634   7.262
 1808DOPC   C1A20957   5.179  15.774   6.822
 1808DOPC   D2A20958   5.009  15.744   6.292
 1808DOPC   C3A20959   5.259  15.484   6.122
 1808DOPC   C4A20960   5.479  15.454   5.712
 1808DOPC   C1B20961   5.679  15.864   6.932
 1808DOPC   D2B20962   5.979  15.784   6.582
 1808DOPC   C3B20963   6.129  16.114   6.302
 1808DOPC   C4B20964   6.099  16.504   6.142
 1809DOPC   NC320965   6.289  16.054   3.822
 1809DOPC   PO420966   6.199  16.454   4.062
 1809DOPC   GL120967   6.319  16.354   4.482
 1809DOPC   GL220968   6.569  16.184   4.702
 1809DOPC   C1A20969   6.329  16.614   4.832
 1809DOPC   D2A20970   6.579  16.614   5.182
 1809DOPC   C3A20971   6.619  16.274   5.472
 1809DOPC   C4A20972   6.549  15.984   5.912
 1809DOPC   C1B20973   6.239  16.224   5.112
 1809DOPC   D2B20974   5.709  16.304   5.282
 1809DOPC   C3B20975   5.579  16.634   5.482
 1809DOPC   C4B20976   5.419  17.004   5.582
 1810DOPC   NC320977  10.549   8.894   8.852
 1810DOPC   PO420978  10.539   9.154   8.422
 1810DOPC   GL120979  10.609   9.234   8.122
 1810DOPC   GL220980  10.899   9.114   7.972
 1810DOPC   C1A20981  10.389   9.354   7.802
 1810DOPC   D2A20982  10.419   9.734   7.612
 1810DOPC   C3A20983  10.479  10.174   7.812
 1810DOPC   C4A20984  10.799  10.514   7.762
 1810DOPC   C1B20985  10.889   9.124   7.562
 1810DOPC   D2B20986  10.719   9.084   7.152
 1810DOPC   C3B20987  10.459   9.444   6.952
 1810DOPC   C4B20988  10.499   9.784   6.752
 1811DOPC   NC320989  21.239  21.094   3.492
 1811DOPC   PO420990  21.179  20.604   3.532
 1811DOPC   GL120991  21.349  20.654   3.932
 1811DOPC   GL220992  21.319  20.984   4.022
 1811DOPC   C1A20993  21.219  20.534   4.332
 1811DOPC   D2A20994  21.209  20.324   4.732
 1811DOPC   C3A20995  21.419  20.504   5.052
 1811DOPC   C4A20996  21.859  20.464   5.152
 1811DOPC   C1B20997  21.679  20.804   4.262
 1811DOPC   D2B20998  21.639  20.624   4.612
 1811DOPC   C3B20999  21.779  20.174   4.742
 1811DOPC   C4B21000  21.899  19.794   5.042
 1812DOPC   NC321001  11.389   1.214   8.592
 1812DOPC   PO421002  11.319   1.454   8.232
 1812DOPC   GL121003  11.439   1.404   7.772
 1812DOPC   GL221004  11.529   1.724   7.532
 1812DOPC   C1A21005  11.609   1.164   7.392
 1812DOPC   D2A21006  11.659   1.264   6.952
 1812DOPC   C3A21007  11.729   0.954   6.592
 1812DOPC   C4A21008  11.549   0.964   6.352
 1812DOPC   C1B21009  11.809   1.674   7.232
 1812DOPC   D2B21010  11.829   1.704   6.662
 1812DOPC   C3B21011  12.019   1.424   6.412
 1812DOPC   C4B21012  12.219   1.084   6.222
 1813DOPC   NC321013   7.859  14.054   8.122
 1813DOPC   PO421014   8.229  14.114   8.502
 1813DOPC   GL121015   8.429  13.894   8.222
 1813DOPC   GL221016   8.739  13.914   8.242
 1813DOPC   C1A21017   8.439  14.024   7.812
 1813DOPC   D2A21018   8.469  14.354   7.512
 1813DOPC   C3A21019   8.329  14.334   7.062
 1813DOPC   C4A21020   8.209  14.354   6.662
 1813DOPC   C1B21021   8.949  13.924   7.842
 1813DOPC   D2B21022   9.019  13.624   7.642
 1813DOPC   C3B21023   8.849  13.544   7.192
 1813DOPC   C4B21024   8.919  13.674   6.872
 1814DOPC   NC321025  14.169   0.944   4.552
 1814DOPC   PO421026  14.139   0.684   4.232
 1814DOPC   GL121027  13.999   0.444   4.732
 1814DOPC   GL221028  13.969   0.574   4.902
 1814DOPC   C1A21029  14.189   0.174   5.142
 1814DOPC   D2A21030  14.009   0.254   5.412
 1814DOPC   C3A21031  14.049   0.224   5.752
 1814DOPC   C4A21032  14.009   0.384   6.152
 1814DOPC   C1B21033  14.109   0.674   5.242
 1814DOPC   D2B21034  13.979   0.734   5.672
 1814DOPC   C3B21035  13.679   0.964   5.812
 1814DOPC   C4B21036  13.579   1.334   6.112
 1815DOPC   NC321037   0.249   6.004   7.152
 1815DOPC   PO421038   0.489   6.334   6.842
 1815DOPC   GL121039   0.709   6.304   6.422
 1815DOPC   GL221040   0.649   5.974   6.272
 1815DOPC   C1A21041   0.849   6.494   5.932
 1815DOPC   D2A21042   1.179   6.684   5.692
 1815DOPC   C3A21043   1.229   7.094   5.582
 1815DOPC   C4A21044   1.409   7.384   5.232
 1815DOPC   C1B21045   0.839   5.944   5.922
 1815DOPC   D2B21046   1.059   5.824   5.632
 1815DOPC   C3B21047   0.989   6.044   5.242
 1815DOPC   C4B21048   0.989   6.074   4.902
 1816DOPC   NC321049  11.869   1.404   8.162
 1816DOPC   PO421050  12.339   1.414   8.102
 1816DOPC   GL121051  12.409   1.724   7.802
 1816DOPC   GL221052  12.579   2.004   7.952
 1816DOPC   C1A21053  12.289   1.824   7.382
 1816DOPC   D2A21054  12.169   1.934   7.012
 1816DOPC   C3A21055  12.199   1.534   6.862
 1816DOPC   C4A21056  12.119   1.054   6.852
 1816DOPC   C1B21057  12.719   2.054   7.532
 1816DOPC   D2B21058  12.609   2.314   7.142
 1816DOPC   C3B21059  12.689   2.184   6.752
 1816DOPC   C4B21060  12.629   2.374   6.422
 1817DOPC   NC321061   5.979   5.934   3.742
 1817DOPC   PO421062   5.969   5.484   3.952
 1817DOPC   GL121063   5.709   5.804   4.182
 1817DOPC   GL221064   6.019   6.024   4.342
 1817DOPC   C1A21065   5.339   5.924   4.472
 1817DOPC   D2A21066   5.059   6.204   4.532
 1817DOPC   C3A21067   5.129   6.614   4.362
 1817DOPC   C4A21068   5.079   6.964   4.212
 1817DOPC   C1B21069   6.209   6.224   4.762
 1817DOPC   D2B21070   6.619   6.084   5.092
 1817DOPC   C3B21071   6.709   6.344   5.392
 1817DOPC   C4B21072   6.649   6.564   5.702
 1818DOPC   NC321073   0.309  12.404   7.962
 1818DOPC   PO421074   0.509  12.194   7.722
 1818DOPC   GL121075   0.639  12.274   7.242
 1818DOPC   GL221076   0.709  11.904   7.142
 1818DOPC   C1A21077   0.889  12.114   6.742
 1818DOPC   D2A21078   0.729  12.134   6.372
 1818DOPC   C3A21079   0.849  12.114   5.852
 1818DOPC   C4A21080   0.619  11.964   5.402
 1818DOPC   C1B21081   0.509  11.784   6.682
 1818DOPC   D2B21082   0.379  11.784   6.212
 1818DOPC   C3B21083   0.011  11.584   6.032
 1818DOPC   C4B21084  -0.279  11.174   5.852
 1819DOPC   NC321085   6.109  13.254   7.682
 1819DOPC   PO421086   6.009  13.174   7.242
 1819DOPC   GL121087   6.039  13.414   7.022
 1819DOPC   GL221088   5.949  13.764   7.122
 1819DOPC   C1A21089   6.279  13.744   6.782
 1819DOPC   D2A21090   6.169  13.704   6.412
 1819DOPC   C3A21091   6.239  13.974   6.102
 1819DOPC   C4A21092   6.339  14.244   5.792
 1819DOPC   C1B21093   5.609  13.824   6.732
 1819DOPC   D2B21094   5.649  14.054   6.452
 1819DOPC   C3B21095   5.649  14.414   6.592
 1819DOPC   C4B21096   5.409  14.664   6.792
 1820DOPC   NC321097  19.109   8.774   4.042
 1820DOPC   PO421098  19.249   9.214   4.012
 1820DOPC   GL121099  19.019   9.164   4.302
 1820DOPC   GL221100  19.169   9.454   4.572
 1820DOPC   C1A21101  19.069   8.944   4.702
 1820DOPC   D2A21102  18.879   8.814   5.052
 1820DOPC   C3A21103  18.989   8.874   5.442
 1820DOPC   C4A21104  18.689   8.954   5.742
 1820DOPC   C1B21105  19.629   9.324   4.692
 1820DOPC   D2B21106  19.799   9.134   4.872
 1820DOPC   C3B21107  20.059   9.224   5.212
 1820DOPC   C4B21108  20.039   9.094   5.642
 1821DOPC   NC321109   9.559  22.271   4.532
 1821DOPC   PO421110   9.949  22.301   4.412
 1821DOPC   GL121111   9.799  22.661   4.742
 1821DOPC   GL221112   9.829  22.461   5.042
 1821DOPC   C1A21113   9.779  23.011   4.942
 1821DOPC   D2A21114   9.879  23.151   5.432
 1821DOPC   C3A21115   9.769  23.541   5.632
 1821DOPC   C4A21116   9.679  23.741   5.992
 1821DOPC   C1B21117   9.849  22.481   5.442
 1821DOPC   D2B21118   9.769  22.081   5.492
 1821DOPC   C3B21119   9.909  21.901   5.882
 1821DOPC   C4B21120   9.939  21.731   6.312
 1822DOPC   NC321121   1.899  10.414   2.772
 1822DOPC   PO421122   1.689  10.084   3.002
 1822DOPC   GL121123   1.719   9.864   3.422
 1822DOPC   GL221124   1.889   9.584   3.632
 1822DOPC   C1A21125   1.709  10.004   3.872
 1822DOPC   D2A21126   1.439  10.254   4.022
 1822DOPC   C3A21127   1.539  10.474   4.352
 1822DOPC   C4A21128   1.629  10.754   4.632
 1822DOPC   C1B21129   1.729   9.514   4.022
 1822DOPC   D2B21130   1.499   9.664   4.312
 1822DOPC   C3B21131   1.649   9.964   4.442
 1822DOPC   C4B21132   1.599  10.194   4.752
 1823DOPC   NC321133  15.599  20.114   8.092
 1823DOPC   PO421134  15.759  19.624   8.062
 1823DOPC   GL121135  15.589  19.894   7.622
 1823DOPC   GL221136  15.319  20.164   7.622
 1823DOPC   C1A21137  15.519  19.934   7.192
 1823DOPC   D2A21138  15.569  20.074   6.832
 1823DOPC   C3A21139  15.459  19.744   6.442
 1823DOPC   C4A21140  15.199  19.704   6.002
 1823DOPC   C1B21141  15.099  20.484   7.352
 1823DOPC   D2B21142  15.159  20.794   7.082
 1823DOPC   C3B21143  14.909  20.824   6.742
 1823DOPC   C4B21144  14.979  20.624   6.392
 1824DOPC   NC321145  10.749   0.384   8.362
 1824DOPC   PO421146  10.659   0.634   8.022
 1824DOPC   GL121147  10.889   0.504   7.792
 1824DOPC   GL221148  10.899   0.114   7.762
 1824DOPC   C1A21149  11.209   0.564   7.412
 1824DOPC   D2A21150  11.409   0.754   7.092
 1824DOPC   C3A21151  11.449   0.554   6.702
 1824DOPC   C4A21152  11.429   0.104   6.432
 1824DOPC   C1B21153  10.759   0.274   7.352
 1824DOPC   D2B21154  10.659   0.694   7.332
 1824DOPC   C3B21155  10.909   0.954   6.982
 1824DOPC   C4B21156  11.249   1.144   6.782
 1825DOPC   NC321157  14.049   7.024   4.782
 1825DOPC   PO421158  13.809   7.434   4.512
 1825DOPC   GL121159  13.879   7.424   4.972
 1825DOPC   GL221160  13.629   7.214   5.082
 1825DOPC   C1A21161  13.929   7.514   5.402
 1825DOPC   D2A21162  14.249   7.384   5.662
 1825DOPC   C3A21163  14.589   7.354   5.932
 1825DOPC   C4A21164  14.759   7.634   6.192
 1825DOPC   C1B21165  13.709   6.854   5.412
 1825DOPC   D2B21166  14.029   6.444   5.502
 1825DOPC   C3B21167  14.259   6.084   5.702
 1825DOPC   C4B21168  14.299   5.734   5.892
 1826DOPC   NC321169  16.939   0.384   8.112
 1826DOPC   PO421170  16.759   0.254   7.762
 1826DOPC   GL121171  16.779   0.404   7.302
 1826DOPC   GL221172  16.409   0.614   7.232
 1826DOPC   C1A21173  16.959   0.374   6.972
 1826DOPC   D2A21174  16.819   0.144   6.612
 1826DOPC   C3A21175  16.769   0.444   6.402
 1826DOPC   C4A21176  16.579   0.924   6.342
 1826DOPC   C1B21177  16.509   0.584   6.782
 1826DOPC   D2B21178  16.279   0.514   6.342
 1826DOPC   C3B21179  16.549   0.494   5.942
 1826DOPC   C4B21180  16.659   0.834   5.792
 1827DOPC   NC321181   8.609   5.494   3.512
 1827DOPC   PO421182   8.679   5.354   3.922
 1827DOPC   GL121183   8.659   5.234   4.352
 1827DOPC   GL221184   8.909   5.224   4.552
 1827DOPC   C1A21185   8.599   4.914   4.812
 1827DOPC   D2A21186   8.569   4.904   5.242
 1827DOPC   C3A21187   8.599   4.894   5.702
 1827DOPC   C4A21188   8.369   4.974   6.042
 1827DOPC   C1B21189   9.089   5.214   4.912
 1827DOPC   D2B21190   9.439   4.994   5.132
 1827DOPC   C3B21191   9.519   4.564   5.172
 1827DOPC   C4B21192   9.699   4.244   5.442
 1828DOPC   NC321193   8.659   7.164   3.752
 1828DOPC   PO421194   8.889   7.074   4.112
 1828DOPC   GL121195   8.799   7.034   4.522
 1828DOPC   GL221196   8.649   7.424   4.602
 1828DOPC   C1A21197   8.869   6.784   4.782
 1828DOPC   D2A21198   9.159   6.554   4.922
 1828DOPC   C3A21199   9.229   6.284   4.662
 1828DOPC   C4A21200   9.009   5.824   4.692
 1828DOPC   C1B21201   8.369   7.604   4.862
 1828DOPC   D2B21202   8.209   7.584   5.332
 1828DOPC   C3B21203   7.719   7.664   5.342
 1828DOPC   C4B21204   7.299   7.434   5.632
 1829DOPC   NC321205  16.449  17.304   3.902
 1829DOPC   PO421206  16.519  16.924   3.842
 1829DOPC   GL121207  16.719  17.034   4.222
 1829DOPC   GL221208  16.699  16.664   4.392
 1829DOPC   C1A21209  17.129  17.064   4.272
 1829DOPC   D2A21210  17.559  16.984   4.502
 1829DOPC   C3A21211  17.599  17.004   4.922
 1829DOPC   C4A21212  17.589  17.284   5.302
 1829DOPC   C1B21213  16.339  16.584   4.662
 1829DOPC   D2B21214  16.299  16.614   5.012
 1829DOPC   C3B21215  16.189  16.414   5.332
 1829DOPC   C4B21216  16.339  16.044   5.482
 1830DOPC   NC321217  11.739  10.714   8.932
 1830DOPC   PO421218  11.889  10.404   8.602
 1830DOPC   GL121219  11.989  10.784   8.502
 1830DOPC   GL221220  12.139  10.954   8.722
 1830DOPC   C1A21221  11.949  10.844   8.092
 1830DOPC   D2A21222  11.859  10.974   7.742
 1830DOPC   C3A21223  12.099  11.444   7.522
 1830DOPC   C4A21224  12.249  11.804   7.332
 1830DOPC   C1B21225  12.379  11.074   8.322
 1830DOPC   D2B21226  12.709  11.184   8.002
 1830DOPC   C3B21227  13.079  11.024   8.012
 1830DOPC   C4B21228  13.219  10.834   7.682
 1831DOPC   NC321229  16.569  15.534   3.772
 1831DOPC   PO421230  16.929  15.234   3.962
 1831DOPC   GL121231  17.199  15.124   4.222
 1831DOPC   GL221232  17.299  15.254   4.582
 1831DOPC   C1A21233  17.599  14.904   4.422
 1831DOPC   D2A21234  17.999  14.994   4.622
 1831DOPC   C3A21235  18.319  14.694   4.832
 1831DOPC   C4A21236  18.569  14.574   5.072
 1831DOPC   C1B21237  17.339  14.974   4.862
 1831DOPC   D2B21238  17.279  14.664   5.202
 1831DOPC   C3B21239  17.139  14.544   5.482
 1831DOPC   C4B21240  17.049  14.084   5.662
 1832DOPC   NC321241  18.799   1.924   3.952
 1832DOPC   PO421242  19.099   2.294   3.912
 1832DOPC   GL121243  19.139   2.094   4.312
 1832DOPC   GL221244  18.829   1.974   4.452
 1832DOPC   C1A21245  19.299   2.114   4.762
 1832DOPC   D2A21246  19.359   2.064   5.132
 1832DOPC   C3A21247  19.349   2.284   5.392
 1832DOPC   C4A21248  19.229   2.384   5.902
 1832DOPC   C1B21249  18.849   1.914   4.932
 1832DOPC   D2B21250  18.939   1.594   5.222
 1832DOPC   C3B21251  19.309   1.684   5.492
 1832DOPC   C4B21252  19.699   1.504   5.702
 1833DOPC   NC321253  13.209   9.604   4.522
 1833DOPC   PO421254  13.269   9.504   4.942
 1833DOPC   GL121255  13.349   9.504   5.402
 1833DOPC   GL221256  13.179   9.804   5.492
 1833DOPC   C1A21257  13.499   9.564   5.832
 1833DOPC   D2A21258  13.559   9.404   6.262
 1833DOPC   C3A21259  13.869   9.194   6.452
 1833DOPC   C4A21260  14.229   9.184   6.702
 1833DOPC   C1B21261  12.919   9.724   5.802
 1833DOPC   D2B21262  12.609   9.574   6.212
 1833DOPC   C3B21263  12.839   9.574   6.642
 1833DOPC   C4B21264  13.259   9.434   6.802
 1834DOPC   NC321265  19.079   3.574   7.772
 1834DOPC   PO421266  18.879   3.464   7.412
 1834DOPC   GL121267  18.899   3.384   6.972
 1834DOPC   GL221268  19.079   3.084   7.012
 1834DOPC   C1A21269  18.809   3.514   6.522
 1834DOPC   D2A21270  18.849   3.444   6.042
 1834DOPC   C3A21271  19.049   3.744   5.822
 1834DOPC   C4A21272  19.229   4.164   5.582
 1834DOPC   C1B21273  19.119   2.814   6.802
 1834DOPC   D2B21274  19.549   2.754   6.532
 1834DOPC   C3B21275  19.699   3.034   6.312
 1834DOPC   C4B21276  19.809   3.344   6.002
 1835DOPC   NC321277   5.659  20.684   3.902
 1835DOPC   PO421278   5.399  20.604   4.272
 1835DOPC   GL121279   5.609  20.514   4.622
 1835DOPC   GL221280   5.989  20.464   4.602
 1835DOPC   C1A21281   5.429  20.564   5.062
 1835DOPC   D2A21282   5.369  20.474   5.472
 1835DOPC   C3A21283   5.109  20.814   5.692
 1835DOPC   C4A21284   5.279  21.214   5.972
 1835DOPC   C1B21285   6.149  20.354   4.962
 1835DOPC   D2B21286   6.049  20.264   5.382
 1835DOPC   C3B21287   6.419  20.244   5.612
 1835DOPC   C4B21288   6.809  20.274   5.692
 1836DOPC   NC321289   2.159   3.604   7.262
 1836DOPC   PO421290   2.429   3.794   7.052
 1836DOPC   GL121291   2.569   3.774   6.672
 1836DOPC   GL221292   2.409   3.444   6.542
 1836DOPC   C1A21293   2.479   3.834   6.222
 1836DOPC   D2A21294   2.739   3.744   5.902
 1836DOPC   C3A21295   2.639   3.664   5.582
 1836DOPC   C4A21296   2.539   3.544   5.112
 1836DOPC   C1B21297   2.469   3.304   6.142
 1836DOPC   D2B21298   2.239   3.544   5.872
 1836DOPC   C3B21299   2.129   3.614   5.492
 1836DOPC   C4B21300   1.929   3.934   5.322
 1837DOPC   NC321301  10.039   3.694   3.342
 1837DOPC   PO421302   9.699   3.954   3.582
 1837DOPC   GL121303   9.609   4.044   4.132
 1837DOPC   GL221304   9.779   3.764   4.282
 1837DOPC   C1A21305   9.669   4.194   4.522
 1837DOPC   D2A21306   9.519   4.144   4.902
 1837DOPC   C3A21307   9.509   3.804   5.242
 1837DOPC   C4A21308   9.739   3.854   5.722
 1837DOPC   C1B21309   9.829   3.664   4.762
 1837DOPC   D2B21310   9.939   3.634   5.092
 1837DOPC   C3B21311  10.339   3.684   5.062
 1837DOPC   C4B21312  10.769   3.524   5.022
 1838DOPC   NC321313  22.209  24.441   3.902
 1838DOPC   PO421314  21.979  24.821   3.922
 1838DOPC   GL121315  22.129  24.891   4.382
 1838DOPC   GL221316  22.169  25.291   4.422
 1838DOPC   C1A21317  22.329  24.651   4.762
 1838DOPC   D2A21318  22.529  24.611   5.302
 1838DOPC   C3A21319  22.399  24.891   5.702
 1838DOPC   C4A21320  22.519  25.301   6.022
 1838DOPC   C1B21321  22.589  25.111   4.522
 1838DOPC   D2B21322  22.829  24.821   4.842
 1838DOPC   C3B21323  22.689  24.361   4.812
 1838DOPC   C4B21324  22.339  24.091   4.702
 1839DOPC   NC321325  13.139  23.481   4.422
 1839DOPC   PO421326  13.469  23.321   4.662
 1839DOPC   GL121327  13.729  23.541   5.052
 1839DOPC   GL221328  13.759  23.311   5.292
 1839DOPC   C1A21329  14.079  23.821   5.242
 1839DOPC   D2A21330  14.189  24.291   5.282
 1839DOPC   C3A21331  14.369  24.491   5.662
 1839DOPC   C4A21332  14.539  24.621   6.172
 1839DOPC   C1B21333  13.359  23.291   5.542
 1839DOPC   D2B21334  13.129  23.101   5.282
 1839DOPC   C3B21335  12.729  22.971   5.582
 1839DOPC   C4B21336  12.719  22.571   5.592
 1840DOPC   NC321337  16.709   4.704   8.152
 1840DOPC   PO421338  16.389   4.904   8.152
 1840DOPC   GL121339  16.329   5.254   7.872
 1840DOPC   GL221340  16.409   5.484   7.692
 1840DOPC   C1A21341  16.039   5.144   7.472
 1840DOPC   D2A21342  15.649   5.144   7.282
 1840DOPC   C3A21343  15.569   5.344   6.842
 1840DOPC   C4A21344  15.639   5.364   6.332
 1840DOPC   C1B21345  16.439   5.414   7.332
 1840DOPC   D2B21346  16.749   4.954   7.272
 1840DOPC   C3B21347  16.649   4.784   6.892
 1840DOPC   C4B21348  16.219   4.604   6.752
 1841DOPC   NC321349  17.389   7.774   4.322
 1841DOPC   PO421350  17.349   8.204   4.042
 1841DOPC   GL121351  17.419   8.194   4.562
 1841DOPC   GL221352  17.429   7.934   4.772
 1841DOPC   C1A21353  17.409   8.454   4.852
 1841DOPC   D2A21354  17.519   8.564   5.292
 1841DOPC   C3A21355  17.519   8.134   5.352
 1841DOPC   C4A21356  17.929   7.854   5.452
 1841DOPC   C1B21357  17.189   7.874   5.112
 1841DOPC   D2B21358  17.129   7.754   5.522
 1841DOPC   C3B21359  16.929   7.514   5.862
 1841DOPC   C4B21360  16.819   7.354   6.212
 1842DOPC   NC321361   6.839  15.014   4.142
 1842DOPC   PO421362   6.989  15.464   4.312
 1842DOPC   GL121363   6.839  15.614   4.792
 1842DOPC   GL221364   6.949  15.474   4.882
 1842DOPC   C1A21365   6.789  15.974   5.152
 1842DOPC   D2A21366   6.939  15.924   5.542
 1842DOPC   C3A21367   7.219  16.054   6.002
 1842DOPC   C4A21368   7.399  16.254   6.422
 1842DOPC   C1B21369   6.819  15.424   5.252
 1842DOPC   D2B21370   6.659  15.504   5.522
 1842DOPC   C3B21371   6.379  15.844   5.432
 1842DOPC   C4B21372   6.109  16.234   5.662
 1843DOPC   NC321373   7.779  20.124   4.482
 1843DOPC   PO421374   8.069  20.014   4.702
 1843DOPC   GL121375   8.169  20.014   5.052
 1843DOPC   GL221376   8.469  20.014   5.102
 1843DOPC   C1A21377   8.299  19.884   5.552
 1843DOPC   D2A21378   8.449  19.674   5.892
 1843DOPC   C3A21379   8.889  19.634   6.002
 1843DOPC   C4A21380   9.329  19.384   6.182
 1843DOPC   C1B21381   8.249  20.394   5.342
 1843DOPC   D2B21382   8.019  20.424   5.672
 1843DOPC   C3B21383   8.179  20.354   6.092
 1843DOPC   C4B21384   8.379  19.954   6.332
 1844DOPC   NC321385  17.259  19.534   3.612
 1844DOPC   PO421386  17.569  19.424   3.852
 1844DOPC   GL121387  17.629  19.064   4.112
 1844DOPC   GL221388  17.369  18.824   4.182
 1844DOPC   C1A21389  17.609  18.934   4.602
 1844DOPC   D2A21390  17.929  18.724   4.932
 1844DOPC   C3A21391  18.139  19.014   5.182
 1844DOPC   C4A21392  18.359  19.434   5.012
 1844DOPC   C1B21393  17.589  18.504   4.342
 1844DOPC   D2B21394  17.629  18.414   4.792
 1844DOPC   C3B21395  17.549  18.394   5.182
 1844DOPC   C4B21396  17.289  18.614   5.562
 1845DOPC   NC321397  23.099  21.711   3.262
 1845DOPC   PO421398  23.259  21.941   3.672
 1845DOPC   GL121399  23.299  21.971   4.172
 1845DOPC   GL221400  22.939  21.791   4.172
 1845DOPC   C1A21401  23.309  22.201   4.472
 1845DOPC   D2A21402  23.239  22.451   4.872
 1845DOPC   C3A21403  23.579  22.631   5.032
 1845DOPC   C4A21404  23.839  22.931   5.242
 1845DOPC   C1B21405  22.839  21.931   4.552
 1845DOPC   D2B21406  22.489  22.201   4.912
 1845DOPC   C3B21407  22.469  22.031   5.332
 1845DOPC   C4B21408  22.479  22.061   5.802
 1846DOPC   NC321409  22.939  19.904   7.532
 1846DOPC   PO421410  23.359  19.684   7.752
 1846DOPC   GL121411  23.389  19.624   7.312
 1846DOPC   GL221412  23.169  19.504   7.062
 1846DOPC   C1A21413  23.629  19.624   7.002
 1846DOPC   D2A21414  23.509  19.424   6.692
 1846DOPC   C3A21415  23.309  19.634   6.392
 1846DOPC   C4A21416  22.899  19.724   6.202
 1846DOPC   C1B21417  22.979  19.384   6.712
 1846DOPC   D2B21418  22.869  19.254   6.392
 1846DOPC   C3B21419  22.819  19.244   6.002
 1846DOPC   C4B21420  22.989  19.084   5.622
 1847DOPC   NC321421  20.019  22.581   7.542
 1847DOPC   PO421422  19.699  22.941   7.602
 1847DOPC   GL121423  19.639  22.741   7.232
 1847DOPC   GL221424  19.609  22.971   7.012
 1847DOPC   C1A21425  19.769  22.641   6.722
 1847DOPC   D2A21426  19.629  22.601   6.352
 1847DOPC   C3A21427  19.719  22.221   6.232
 1847DOPC   C4A21428  19.479  22.011   6.432
 1847DOPC   C1B21429  19.539  23.331   6.752
 1847DOPC   D2B21430  19.569  23.781   6.692
 1847DOPC   C3B21431  19.779  23.991   6.202
 1847DOPC   C4B21432  19.659  24.181   5.812
 1848DOPC   NC321433  23.329   7.524   3.452
 1848DOPC   PO421434  23.419   7.094   3.572
 1848DOPC   GL121435  23.269   6.894   3.922
 1848DOPC   GL221436  23.049   6.824   3.972
 1848DOPC   C1A21437  23.359   7.034   4.322
 1848DOPC   D2A21438  23.379   7.094   4.842
 1848DOPC   C3A21439  23.079   6.834   5.142
 1848DOPC   C4A21440  23.019   6.664   5.552
 1848DOPC   C1B21441  22.939   6.834   4.422
 1848DOPC   D2B21442  22.719   6.754   4.802
 1848DOPC   C3B21443  22.349   6.664   4.752
 1848DOPC   C4B21444  21.979   6.884   4.752
 1849DOPC   NC321445  10.319  11.204   8.612
 1849DOPC   PO421446  10.369  11.604   8.582
 1849DOPC   GL121447  10.239  11.564   8.232
 1849DOPC   GL221448  10.429  11.274   8.062
 1849DOPC   C1A21449  10.189  11.524   7.782
 1849DOPC   D2A21450  10.339  11.574   7.362
 1849DOPC   C3A21451  10.419  12.014   7.132
 1849DOPC   C4A21452  10.709  12.434   6.892
 1849DOPC   C1B21453  10.649  11.314   7.732
 1849DOPC   D2B21454  11.129  11.334   7.612
 1849DOPC   C3B21455  11.399  11.034   7.402
 1849DOPC   C4B21456  11.669  10.614   7.352
 1850DOPC   NC321457   4.259   4.484   7.522
 1850DOPC   PO421458   3.939   4.704   7.222
 1850DOPC   GL121459   4.269   4.664   6.842
 1850DOPC   GL221460   4.479   4.884   6.802
 1850DOPC   C1A21461   4.429   4.544   6.472
 1850DOPC   D2A21462   4.449   4.344   6.102
 1850DOPC   C3A21463   4.159   4.104   5.862
 1850DOPC   C4A21464   4.219   3.814   5.512
 1850DOPC   C1B21465   4.869   4.794   6.572
 1850DOPC   D2B21466   5.219   4.894   6.262
 1850DOPC   C3B21467   5.389   4.564   6.032
 1850DOPC   C4B21468   5.779   4.374   5.912
 1851DOPC   NC321469  10.279  12.144   4.962
 1851DOPC   PO421470   9.999  12.204   4.612
 1851DOPC   GL121471   9.689  12.114   4.922
 1851DOPC   GL221472   9.879  12.134   5.212
 1851DOPC   C1A21473   9.419  11.994   5.342
 1851DOPC   D2A21474   9.109  11.884   5.702
 1851DOPC   C3A21475   8.859  11.624   6.032
 1851DOPC   C4A21476   8.999  11.814   6.452
 1851DOPC   C1B21477   9.839  11.934   5.682
 1851DOPC   D2B21478   9.919  11.944   6.052
 1851DOPC   C3B21479   9.609  11.574   6.432
 1851DOPC   C4B21480   9.289  11.264   6.652
 1852DOPC   NC321481   6.639   7.324   3.292
 1852DOPC   PO421482   6.849   7.004   3.532
 1852DOPC   GL121483   6.919   6.924   3.922
 1852DOPC   GL221484   7.159   6.854   3.952
 1852DOPC   C1A21485   7.079   7.294   4.372
 1852DOPC   D2A21486   6.999   7.474   4.632
 1852DOPC   C3A21487   6.869   7.324   5.102
 1852DOPC   C4A21488   7.119   7.044   5.392
 1852DOPC   C1B21489   7.049   6.774   4.412
 1852DOPC   D2B21490   6.879   6.634   4.972
 1852DOPC   C3B21491   6.589   6.864   5.312
 1852DOPC   C4B21492   6.679   7.114   5.592
 1853DOPC   NC321493  18.619  13.194   4.172
 1853DOPC   PO421494  18.889  12.834   4.262
 1853DOPC   GL121495  18.839  12.504   4.552
 1853DOPC   GL221496  18.539  12.384   4.612
 1853DOPC   C1A21497  18.989  12.374   4.962
 1853DOPC   D2A21498  19.079  12.744   5.342
 1853DOPC   C3A21499  19.169  12.564   5.792
 1853DOPC   C4A21500  19.339  12.874   6.082
 1853DOPC   C1B21501  18.709  12.064   4.752
 1853DOPC   D2B21502  18.739  12.064   5.292
 1853DOPC   C3B21503  18.479  12.334   5.612
 1853DOPC   C4B21504  18.689  12.384   5.992
 1854DOPC   NC321505  15.309  11.894   4.882
 1854DOPC   PO421506  15.219  11.484   4.762
 1854DOPC   GL121507  15.359  11.134   4.922
 1854DOPC   GL221508  15.699  11.014   4.752
 1854DOPC   C1A21509  15.239  11.114   5.372
 1854DOPC   D2A21510  15.419  11.064   5.822
 1854DOPC   C3A21511  15.689  10.824   5.972
 1854DOPC   C4A21512  15.759  10.364   6.192
 1854DOPC   C1B21513  16.069  10.864   5.032
 1854DOPC   D2B21514  16.259  10.804   5.452
 1854DOPC   C3B21515  16.269  10.644   5.882
 1854DOPC   C4B21516  16.129  10.794   6.232
 1855DOPC   NC321517   7.919  12.154   8.112
 1855DOPC   PO421518   7.819  11.854   7.802
 1855DOPC   GL121519   7.729  11.614   7.472
 1855DOPC   GL221520   8.039  11.654   7.232
 1855DOPC   C1A21521   7.459  11.434   7.092
 1855DOPC   D2A21522   7.229  11.804   6.892
 1855DOPC   C3A21523   7.429  11.874   6.482
 1855DOPC   C4A21524   7.499  12.144   6.062
 1855DOPC   C1B21525   8.459  11.874   7.082
 1855DOPC   D2B21526   8.659  11.814   6.772
 1855DOPC   C3B21527   8.439  11.574   6.442
 1855DOPC   C4B21528   8.319  11.604   6.042
 1856DOPC   NC321529  13.189   0.934   8.072
 1856DOPC   PO421530  13.379   0.584   8.012
 1856DOPC   GL121531  13.439   0.874   7.612
 1856DOPC   GL221532  13.729   0.814   7.572
 1856DOPC   C1A21533  13.579   1.094   7.212
 1856DOPC   D2A21534  13.809   1.104   6.862
 1856DOPC   C3A21535  13.909   1.454   6.552
 1856DOPC   C4A21536  13.679   1.794   6.312
 1856DOPC   C1B21537  14.069   0.714   7.292
 1856DOPC   D2B21538  13.999   0.584   6.782
 1856DOPC   C3B21539  13.719   0.714   6.412
 1856DOPC   C4B21540  13.999   1.024   6.202
 1857DOPC   NC321541  18.819   7.734   3.792
 1857DOPC   PO421542  18.509   7.454   3.902
 1857DOPC   GL121543  18.379   7.214   4.272
 1857DOPC   GL221544  18.199   7.494   4.392
 1857DOPC   C1A21545  18.249   7.144   4.762
 1857DOPC   D2A21546  18.329   7.114   5.142
 1857DOPC   C3A21547  18.179   6.934   5.462
 1857DOPC   C4A21548  17.939   6.864   5.772
 1857DOPC   C1B21549  18.389   7.834   4.732
 1857DOPC   D2B21550  18.459   7.974   5.142
 1857DOPC   C3B21551  18.459   7.794   5.482
 1857DOPC   C4B21552  18.589   7.374   5.562
 1858DOPC   NC321553  15.029  14.664   4.872
 1858DOPC   PO421554  15.129  14.994   4.522
 1858DOPC   GL121555  14.999  15.254   4.892
 1858DOPC   GL221556  14.939  15.104   5.162
 1858DOPC   C1A21557  15.009  15.704   5.002
 1858DOPC   D2A21558  15.339  16.114   5.092
 1858DOPC   C3A21559  15.529  16.254   5.392
 1858DOPC   C4A21560  15.789  16.534   5.672
 1858DOPC   C1B21561  15.079  15.364   5.412
 1858DOPC   D2B21562  15.129  15.524   5.932
 1858DOPC   C3B21563  14.879  15.934   5.982
 1858DOPC   C4B21564  14.949  16.374   5.572
 1859DOPC   NC321565  21.159   9.884   3.622
 1859DOPC   PO421566  20.989   9.574   3.572
 1859DOPC   GL121567  20.909   9.694   4.022
 1859DOPC   GL221568  20.719   9.604   4.222
 1859DOPC   C1A21569  21.099   9.784   4.442
 1859DOPC   D2A21570  21.409   9.964   4.722
 1859DOPC   C3A21571  21.739  10.314   4.902
 1859DOPC   C4A21572  21.659  10.594   5.162
 1859DOPC   C1B21573  20.629   9.614   4.602
 1859DOPC   D2B21574  20.459   9.574   5.102
 1859DOPC   C3B21575  20.089   9.784   5.332
 1859DOPC   C4B21576  19.699   9.974   5.452
 1860DOPC   NC321577  25.459   2.014   7.352
 1860DOPC   PO421578  25.479   2.514   7.332
 1860DOPC   GL121579  25.199   2.644   6.822
 1860DOPC   GL221580  25.329   2.974   6.642
 1860DOPC   C1A21581  25.109   2.434   6.422
 1860DOPC   D2A21582  24.909   2.354   5.902
 1860DOPC   C3A21583  25.009   2.514   5.482
 1860DOPC   C4A21584  24.779   2.904   5.252
 1860DOPC   C1B21585  25.756   3.084   6.592
 1860DOPC   D2B21586  25.996   3.084   6.162
 1860DOPC   C3B21587  25.926   2.774   5.822
 1860DOPC   C4B21588  25.786   2.364   5.662
 1861DOPC   NC321589   1.509  22.311   4.132
 1861DOPC   PO421590   1.829  22.471   3.922
 1861DOPC   GL121591   1.869  22.821   4.282
 1861DOPC   GL221592   1.859  23.181   4.272
 1861DOPC   C1A21593   2.129  22.951   4.652
 1861DOPC   D2A21594   1.949  23.071   5.042
 1861DOPC   C3A21595   1.629  23.411   5.122
 1861DOPC   C4A21596   1.789  23.891   5.252
 1861DOPC   C1B21597   1.689  23.381   4.602
 1861DOPC   D2B21598   1.289  23.511   4.562
 1861DOPC   C3B21599   0.989  23.271   4.792
 1861DOPC   C4B21600   0.529  23.251   4.722
 1862DOPC   NC321601   2.649  12.194   7.562
 1862DOPC   PO421602   2.189  12.084   7.472
 1862DOPC   GL121603   1.879  12.254   7.202
 1862DOPC   GL221604   1.929  12.594   7.272
 1862DOPC   C1A21605   1.569  12.594   6.862
 1862DOPC   D2A21606   1.639  12.844   6.442
 1862DOPC   C3A21607   1.979  12.804   6.262
 1862DOPC   C4A21608   2.239  12.494   6.132
 1862DOPC   C1B21609   2.179  12.834   6.902
 1862DOPC   D2B21610   2.509  12.964   6.572
 1862DOPC   C3B21611   2.509  12.884   6.092
 1862DOPC   C4B21612   2.469  12.934   5.572
 1863DOPC   NC321613  23.619  20.194   3.672
 1863DOPC   PO421614  23.199  20.284   3.582
 1863DOPC   GL121615  23.179  20.234   4.002
 1863DOPC   GL221616  23.429  20.064   4.142
 1863DOPC   C1A21617  23.189  20.384   4.422
 1863DOPC   D2A21618  23.059  20.254   4.892
 1863DOPC   C3A21619  23.379  20.154   5.212
 1863DOPC   C4A21620  23.829  20.234   5.342
 1863DOPC   C1B21621  23.669  19.704   4.452
 1863DOPC   D2B21622  23.709  19.334   4.702
 1863DOPC   C3B21623  23.359  19.114   4.732
 1863DOPC   C4B21624  23.149  19.074   4.432
 1864DOPC   NC321625   4.309   3.404   3.722
 1864DOPC   PO421626   4.099   3.714   3.652
 1864DOPC   GL121627   4.139   3.924   4.032
 1864DOPC   GL221628   4.299   4.194   4.142
 1864DOPC   C1A21629   3.999   4.014   4.562
 1864DOPC   D2A21630   4.039   3.894   4.912
 1864DOPC   C3A21631   4.039   4.244   5.252
 1864DOPC   C4A21632   4.099   4.534   5.602
 1864DOPC   C1B21633   4.039   4.544   4.342
 1864DOPC   D2B21634   3.999   4.814   4.732
 1864DOPC   C3B21635   3.709   5.134   4.832
 1864DOPC   C4B21636   3.219   5.344   4.832
 1865DOPC   NC321637   8.679  10.504   4.172
 1865DOPC   PO421638   8.439  10.054   4.102
 1865DOPC   GL121639   8.429   9.844   4.522
 1865DOPC   GL221640   8.139   9.614   4.642
 1865DOPC   C1A21641   8.739   9.784   4.772
 1865DOPC   D2A21642   8.979   9.704   5.152
 1865DOPC   C3A21643   9.359   9.634   5.242
 1865DOPC   C4A21644   9.539   9.364   4.962
 1865DOPC   C1B21645   8.369   9.554   5.002
 1865DOPC   D2B21646   8.309   9.684   5.472
 1865DOPC   C3B21647   8.569   9.944   5.712
 1865DOPC   C4B21648   8.819   9.964   6.092
 1866DOPC   NC321649   6.869   2.644   4.042
 1866DOPC   PO421650   6.589   2.814   4.212
 1866DOPC   GL121651   6.449   2.524   4.482
 1866DOPC   GL221652   6.059   2.484   4.642
 1866DOPC   C1A21653   6.439   2.244   4.932
 1866DOPC   D2A21654   6.459   2.164   5.412
 1866DOPC   C3A21655   6.689   1.844   5.542
 1866DOPC   C4A21656   7.039   1.614   5.352
 1866DOPC   C1B21657   5.899   2.144   4.802
 1866DOPC   D2B21658   5.519   1.984   4.952
 1866DOPC   C3B21659   5.479   1.724   5.322
 1866DOPC   C4B21660   5.789   1.654   5.692
 1867DOPC   NC321661  10.459   8.934   4.262
 1867DOPC   PO421662  10.019   9.094   4.352
 1867DOPC   GL121663  10.229   9.174   4.772
 1867DOPC   GL221664  10.239   9.474   4.872
 1867DOPC   C1A21665  10.369   8.984   5.242
 1867DOPC   D2A21666  10.009   8.954   5.592
 1867DOPC   C3A21667   9.999   8.634   5.942
 1867DOPC   C4A21668   9.829   8.284   6.102
 1867DOPC   C1B21669   9.969   9.324   5.172
 1867DOPC   D2B21670   9.679   9.384   5.552
 1867DOPC   C3B21671   9.419   9.484   5.772
 1867DOPC   C4B21672   9.319   9.474   6.282
 1868DOPC   NC321673   9.119  15.394   4.152
 1868DOPC   PO421674   8.979  15.584   4.492
 1868DOPC   GL121675   8.949  15.774   4.872
 1868DOPC   GL221676   8.609  15.674   4.902
 1868DOPC   C1A21677   8.829  15.734   5.342
 1868DOPC   D2A21678   8.869  15.954   5.732
 1868DOPC   C3A21679   8.879  15.804   6.222
 1868DOPC   C4A21680   8.459  15.794   6.432
 1868DOPC   C1B21681   8.319  15.394   5.162
 1868DOPC   D2B21682   8.109  15.094   5.432
 1868DOPC   C3B21683   8.109  14.634   5.562
 1868DOPC   C4B21684   7.909  14.304   5.562
 1869DOPC   NC321685  12.779  25.511   4.422
 1869DOPC   PO421686  12.719  25.081   4.352
 1869DOPC   GL121687  12.699  25.181   4.792
 1869DOPC   GL221688  12.959  25.341   4.862
 1869DOPC   C1A21689  12.859  25.101   5.242
 1869DOPC   D2A21690  12.859  25.181   5.732
 1869DOPC   C3A21691  12.589  25.391   6.002
 1869DOPC   C4A21692  12.489  25.741   6.122
 1869DOPC   C1B21693  13.339  25.471   5.002
 1869DOPC   D2B21694  13.639  25.541   5.272
 1869DOPC   C3B21695  13.589  25.621   5.752
 1869DOPC   C4B21696  13.499  25.761   6.172
 1870DOPC   NC321697  10.889   3.524   7.942
 1870DOPC   PO421698  10.529   3.594   8.022
 1870DOPC   GL121699  10.579   3.924   7.862
 1870DOPC   GL221700  10.279   3.874   7.712
 1870DOPC   C1A21701  10.749   4.024   7.462
 1870DOPC   D2A21702  10.829   4.104   7.072
 1870DOPC   C3A21703  10.709   4.354   6.752
 1870DOPC   C4A21704  10.429   4.314   6.492
 1870DOPC   C1B21705  10.289   3.974   7.302
 1870DOPC   D2B21706  10.379   4.054   6.902
 1870DOPC   C3B21707  10.299   3.834   6.632
 1870DOPC   C4B21708  10.049   3.704   6.202
 1871DOPC   NC321709  10.229   7.654   8.062
 1871DOPC   PO421710   9.879   8.104   8.032
 1871DOPC   GL121711  10.039   7.964   7.662
 1871DOPC   GL221712   9.949   8.234   7.432
 1871DOPC   C1A21713  10.269   7.814   7.412
 1871DOPC   D2A21714  10.459   7.654   7.032
 1871DOPC   C3A21715  10.159   7.654   6.652
 1871DOPC   C4A21716   9.929   7.804   6.292
 1871DOPC   C1B21717   9.979   8.624   7.142
 1871DOPC   D2B21718   9.749   8.754   6.882
 1871DOPC   C3B21719   9.389   8.684   6.902
 1871DOPC   C4B21720   9.269   8.984   6.602
 1872DOPC   NC321721   0.099  19.964   7.502
 1872DOPC   PO421722   0.429  20.004   7.532
 1872DOPC   GL121723   0.649  20.174   7.292
 1872DOPC   GL221724   0.619  20.504   7.232
 1872DOPC   C1A21725   0.889  20.074   6.912
 1872DOPC   D2A21726   1.219  19.864   6.712
 1872DOPC   C3A21727   1.059  19.804   6.372
 1872DOPC   C4A21728   0.889  19.824   5.982
 1872DOPC   C1B21729   0.649  20.614   6.902
 1872DOPC   D2B21730   0.549  20.654   6.412
 1872DOPC   C3B21731   0.189  20.404   6.252
 1872DOPC   C4B21732  -0.249  20.394   6.482
 1873DOPC   NC321733  11.229   7.064   4.222
 1873DOPC   PO421734  11.039   6.694   4.312
 1873DOPC   GL121735  11.169   6.874   4.692
 1873DOPC   GL221736  11.209   7.144   4.762
 1873DOPC   C1A21737  11.139   6.834   5.192
 1873DOPC   D2A21738  11.109   6.824   5.592
 1873DOPC   C3A21739  11.449   6.864   5.852
 1873DOPC   C4A21740  11.829   7.124   5.972
 1873DOPC   C1B21741  10.979   7.314   5.022
 1873DOPC   D2B21742  10.849   7.474   5.422
 1873DOPC   C3B21743  10.909   7.254   5.812
 1873DOPC   C4B21744  10.999   7.434   6.192
 1874DOPC   NC321745   5.029   4.124   7.852
 1874DOPC   PO421746   4.699   4.174   7.642
 1874DOPC   GL121747   4.659   3.934   7.182
 1874DOPC   GL221748   4.969   3.694   7.112
 1874DOPC   C1A21749   4.399   4.114   6.692
 1874DOPC   D2A21750   4.059   4.134   6.412
 1874DOPC   C3A21751   3.689   4.104   6.432
 1874DOPC   C4A21752   3.329   4.124   6.362
 1874DOPC   C1B21753   4.889   3.774   6.742
 1874DOPC   D2B21754   4.729   3.984   6.322
 1874DOPC   C3B21755   4.999   4.194   6.182
 1874DOPC   C4B21756   4.869   4.604   6.072
 1875DOPC   NC321757  14.169  10.684   4.852
 1875DOPC   PO421758  13.699  10.884   4.922
 1875DOPC   GL121759  13.799  10.684   5.202
 1875DOPC   GL221760  13.949  10.904   5.412
 1875DOPC   C1A21761  13.569  10.504   5.542
 1875DOPC   D2A21762  13.349  10.174   5.782
 1875DOPC   C3A21763  13.539   9.984   6.142
 1875DOPC   C4A21764  13.899   9.784   6.352
 1875DOPC   C1B21765  13.899  10.724   5.862
 1875DOPC   D2B21766  14.019  10.604   6.242
 1875DOPC   C3B21767  14.309  10.284   6.362
 1875DOPC   C4B21768  14.839  10.414   6.252
 1876DOPC   NC321769  16.899   5.634   7.822
 1876DOPC   PO421770  17.369   5.684   7.792
 1876DOPC   GL121771  17.239   5.724   7.372
 1876DOPC   GL221772  16.999   5.454   7.342
 1876DOPC   C1A21773  17.229   5.734   6.952
 1876DOPC   D2A21774  16.879   5.834   6.612
 1876DOPC   C3A21775  16.969   5.974   6.272
 1876DOPC   C4A21776  17.269   6.114   5.982
 1876DOPC   C1B21777  16.859   5.374   6.922
 1876DOPC   D2B21778  16.759   5.224   6.472
 1876DOPC   C3B21779  16.939   5.424   6.142
 1876DOPC   C4B21780  17.339   5.614   5.882
 1877DOPC   NC321781  16.089  20.064   3.902
 1877DOPC   PO421782  15.599  20.334   3.812
 1877DOPC   GL121783  15.869  20.364   4.212
 1877DOPC   GL221784  15.979  20.584   4.352
 1877DOPC   C1A21785  15.859  20.034   4.562
 1877DOPC   D2A21786  15.729  19.984   4.952
 1877DOPC   C3A21787  15.699  19.684   5.242
 1877DOPC   C4A21788  15.559  19.724   5.662
 1877DOPC   C1B21789  16.129  20.264   4.842
 1877DOPC   D2B21790  16.169  20.364   5.202
 1877DOPC   C3B21791  16.599  20.544   5.272
 1877DOPC   C4B21792  16.859  20.834   5.462
 1878DOPC   NC321793  12.149  22.611   4.322
 1878DOPC   PO421794  11.969  22.391   4.612
 1878DOPC   GL121795  11.999  22.661   4.912
 1878DOPC   GL221796  12.129  22.841   4.982
 1878DOPC   C1A21797  11.919  22.401   5.262
 1878DOPC   D2A21798  12.119  22.241   5.672
 1878DOPC   C3A21799  12.459  22.391   6.012
 1878DOPC   C4A21800  12.639  22.491   6.422
 1878DOPC   C1B21801  12.299  23.141   5.242
 1878DOPC   D2B21802  12.339  23.251   5.702
 1878DOPC   C3B21803  12.509  22.961   6.122
 1878DOPC   C4B21804  12.879  22.991   6.442
 1879DOPC   NC321805  11.749   9.994   4.802
 1879DOPC   PO421806  11.989   9.604   4.712
 1879DOPC   GL121807  11.869   9.424   5.142
 1879DOPC   GL221808  12.069   9.504   5.382
 1879DOPC   C1A21809  11.649   9.164   5.302
 1879DOPC   D2A21810  11.609   8.884   5.612
 1879DOPC   C3A21811  11.689   9.004   5.962
 1879DOPC   C4A21812  11.829   9.124   6.392
 1879DOPC   C1B21813  12.519   9.444   5.512
 1879DOPC   D2B21814  12.629   9.214   5.832
 1879DOPC   C3B21815  12.809   8.964   6.232
 1879DOPC   C4B21816  13.319   9.034   6.482
 1880DOPC   NC321817   4.199  25.551   2.932
 1880DOPC   PO421818   4.509  25.491   3.372
 1880DOPC   GL121819   4.199  25.481   3.792
 1880DOPC   GL221820   4.189  25.251   4.002
 1880DOPC   C1A21821   4.329  25.641   4.252
 1880DOPC   D2A21822   4.389  25.981   4.482
 1880DOPC   C3A21823   4.859  26.041   4.632
 1880DOPC   C4A21824   4.979  26.401   4.542
 1880DOPC   C1B21825   4.099  25.231   4.372
 1880DOPC   D2B21826   4.299  25.181   4.762
 1880DOPC   C3B21827   4.109  25.371   5.102
 1880DOPC   C4B21828   4.339  25.501   5.442
 1881DOPC   NC321829   9.699  11.404   4.232
 1881DOPC   PO421830   9.749  10.874   4.292
 1881DOPC   GL121831   9.669  10.734   4.722
 1881DOPC   GL221832   9.999  10.654   4.922
 1881DOPC   C1A21833   9.319  10.704   4.982
 1881DOPC   D2A21834   8.909  10.794   5.162
 1881DOPC   C3A21835   8.989  10.894   5.612
 1881DOPC   C4A21836   8.859  10.914   6.012
 1881DOPC   C1B21837   9.759  10.584   5.182
 1881DOPC   D2B21838   9.429  10.744   5.412
 1881DOPC   C3B21839   9.259  10.474   5.752
 1881DOPC   C4B21840   9.449  10.044   5.902
 1882DOPC   NC321841  12.239  22.081   8.602
 1882DOPC   PO421842  11.979  22.461   8.562
 1882DOPC   GL121843  11.879  22.311   8.162
 1882DOPC   GL221844  11.719  22.401   7.992
 1882DOPC   C1A21845  12.069  22.091   7.832
 1882DOPC   D2A21846  12.009  21.951   7.442
 1882DOPC   C3A21847  11.959  21.521   7.282
 1882DOPC   C4A21848  11.849  21.334   6.852
 1882DOPC   C1B21849  11.609  21.961   7.722
 1882DOPC   D2B21850  11.439  21.751   7.452
 1882DOPC   C3B21851  11.499  21.741   7.042
 1882DOPC   C4B21852  11.179  21.911   6.792
 1883DOPC   NC321853  23.329  24.531   7.872
 1883DOPC   PO421854  23.759  24.521   7.682
 1883DOPC   GL121855  23.769  24.611   7.232
 1883DOPC   GL221856  24.119  24.731   7.212
 1883DOPC   C1A21857  23.619  24.421   6.882
 1883DOPC   D2A21858  23.189  24.521   6.752
 1883DOPC   C3A21859  23.099  24.291   6.392
 1883DOPC   C4A21860  23.019  24.071   5.922
 1883DOPC   C1B21861  24.139  24.631   6.762
 1883DOPC   D2B21862  24.209  24.781   6.422
 1883DOPC   C3B21863  23.899  24.601   6.112
 1883DOPC   C4B21864  23.899  24.261   5.892
 1884DOPC   NC321865  18.099  24.701   3.662
 1884DOPC   PO421866  18.239  24.331   3.852
 1884DOPC   GL121867  18.139  24.471   4.242
 1884DOPC   GL221868  18.149  24.091   4.372
 1884DOPC   C1A21869  18.109  24.371   4.742
 1884DOPC   D2A21870  17.969  24.391   5.112
 1884DOPC   C3A21871  18.239  24.581   5.262
 1884DOPC   C4A21872  18.349  25.001   5.342
 1884DOPC   C1B21873  18.429  23.841   4.652
 1884DOPC   D2B21874  18.889  23.901   4.662
 1884DOPC   C3B21875  19.279  23.671   4.752
 1884DOPC   C4B21876  19.579  23.531   5.012
 1885DOPC   NC321877   8.529  11.864   4.032
 1885DOPC   PO421878   8.749  11.474   3.952
 1885DOPC   GL121879   8.619  11.464   4.362
 1885DOPC   GL221880   8.789  11.764   4.522
 1885DOPC   C1A21881   8.499  11.584   4.852
 1885DOPC   D2A21882   8.319  11.604   5.282
 1885DOPC   C3A21883   8.529  11.464   5.602
 1885DOPC   C4A21884   8.109  11.274   5.702
 1885DOPC   C1B21885   8.789  12.044   4.882
 1885DOPC   D2B21886   8.979  12.304   5.152
 1885DOPC   C3B21887   8.959  12.324   5.632
 1885DOPC   C4B21888   8.999  12.274   6.012
 1886DOPC   NC321889   9.219   9.914   3.822
 1886DOPC   PO421890   9.299  10.214   4.052
 1886DOPC   GL121891   9.349  10.414   4.492
 1886DOPC   GL221892   9.119  10.664   4.342
 1886DOPC   C1A21893   9.519  10.244   4.852
 1886DOPC   D2A21894   9.419  10.254   5.272
 1886DOPC   C3A21895   9.129  10.044   5.542
 1886DOPC   C4A21896   8.969   9.574   5.632
 1886DOPC   C1B21897   9.019  10.954   4.622
 1886DOPC   D2B21898   8.789  11.194   4.812
 1886DOPC   C3B21899   8.549  11.104   5.202
 1886DOPC   C4B21900   8.429  10.804   5.542
 1887DOPC   NC321901  19.049   2.134   8.252
 1887DOPC   PO421902  18.999   1.784   8.032
 1887DOPC   GL121903  18.779   1.854   7.712
 1887DOPC   GL221904  18.559   1.724   7.602
 1887DOPC   C1A21905  18.989   1.924   7.202
 1887DOPC   D2A21906  18.819   2.294   6.922
 1887DOPC   C3A21907  18.899   2.074   6.502
 1887DOPC   C4A21908  18.689   2.134   6.052
 1887DOPC   C1B21909  18.789   1.464   7.312
 1887DOPC   D2B21910  18.689   1.134   6.982
 1887DOPC   C3B21911  18.599   0.724   7.012
 1887DOPC   C4B21912  18.469   0.404   7.012
 1888DOPC   NC321913  14.429   5.754   4.442
 1888DOPC   PO421914  14.019   5.714   4.482
 1888DOPC   GL121915  14.149   5.654   4.992
 1888DOPC   GL221916  14.389   5.634   4.952
 1888DOPC   C1A21917  13.929   5.854   5.382
 1888DOPC   D2A21918  13.769   6.064   5.732
 1888DOPC   C3A21919  13.869   5.934   6.072
 1888DOPC   C4A21920  13.749   5.854   6.562
 1888DOPC   C1B21921  14.439   5.674   5.392
 1888DOPC   D2B21922  14.739   5.764   5.662
 1888DOPC   C3B21923  14.759   5.614   6.132
 1888DOPC   C4B21924  14.639   5.904   6.502
 1889DOPC   NC321925  11.499   6.644   7.862
 1889DOPC   PO421926  11.049   6.544   7.722
 1889DOPC   GL121927  10.709   6.494   7.412
 1889DOPC   GL221928  10.589   6.074   7.422
 1889DOPC   C1A21929  10.679   6.234   6.942
 1889DOPC   D2A21930  10.579   6.074   6.582
 1889DOPC   C3A21931  10.699   5.764   6.322
 1889DOPC   C4A21932  10.609   5.274   6.152
 1889DOPC   C1B21933  10.829   5.754   7.192
 1889DOPC   D2B21934  10.889   5.574   6.822
 1889DOPC   C3B21935  11.189   5.674   6.452
 1889DOPC   C4B21936  11.359   5.824   6.072
 1890DOPC   NC321937  19.949  20.344   3.722
 1890DOPC   PO421938  20.369  19.994   3.762
 1890DOPC   GL121939  20.019  19.884   3.962
 1890DOPC   GL221940  20.069  19.844   4.212
 1890DOPC   C1A21941  19.589  20.024   4.212
 1890DOPC   D2A21942  19.479  20.174   4.692
 1890DOPC   C3A21943  19.159  20.174   4.972
 1890DOPC   C4A21944  18.869  20.134   5.342
 1890DOPC   C1B21945  20.159  20.194   4.432
 1890DOPC   D2B21946  19.919  20.374   4.762
 1890DOPC   C3B21947  20.069  20.564   5.062
 1890DOPC   C4B21948  20.269  20.474   5.462
 1891DOPC   NC321949  16.789   4.894   4.282
 1891DOPC   PO421950  17.179   5.124   4.292
 1891DOPC   GL121951  17.069   4.864   4.702
 1891DOPC   GL221952  16.839   4.724   4.772
 1891DOPC   C1A21953  16.989   5.024   5.132
 1891DOPC   D2A21954  16.979   5.384   5.342
 1891DOPC   C3A21955  16.649   5.554   5.612
 1891DOPC   C4A21956  16.509   5.784   5.812
 1891DOPC   C1B21957  16.919   4.424   5.072
 1891DOPC   D2B21958  16.819   4.294   5.492
 1891DOPC   C3B21959  16.989   4.124   5.892
 1891DOPC   C4B21960  17.219   3.934   6.322
 1892DOPC   NC321961  10.339  16.404   4.402
 1892DOPC   PO421962  10.119  16.654   4.732
 1892DOPC   GL121963  10.009  16.664   5.082
 1892DOPC   GL221964  10.389  16.634   5.272
 1892DOPC   C1A21965   9.879  16.694   5.492
 1892DOPC   D2A21966   9.499  16.744   5.762
 1892DOPC   C3A21967   9.079  16.864   5.642
 1892DOPC   C4A21968   8.719  17.094   5.852
 1892DOPC   C1B21969  10.469  16.404   5.692
 1892DOPC   D2B21970  10.469  15.944   5.782
 1892DOPC   C3B21971  10.159  15.774   6.082
 1892DOPC   C4B21972   9.879  16.074   6.332
 1893DOPC   NC321973  25.559  20.234   3.782
 1893DOPC   PO421974  25.169  20.184   3.812
 1893DOPC   GL121975  25.119  20.104   4.212
 1893DOPC   GL221976  25.409  20.074   4.232
 1893DOPC   C1A21977  25.189  20.384   4.542
 1893DOPC   D2A21978  25.199  20.374   5.052
 1893DOPC   C3A21979  25.569  20.294   5.132
 1893DOPC   C4A21980  25.996  20.404   5.022
 1893DOPC   C1B21981  25.519  19.674   4.402
 1893DOPC   D2B21982  25.656  19.514   4.802
 1893DOPC   C3B21983  25.579  19.194   5.032
 1893DOPC   C4B21984  25.269  18.864   5.102
 1894DOPC   NC321985  24.549  17.344   3.332
 1894DOPC   PO421986  24.499  17.064   3.802
 1894DOPC   GL121987  24.619  16.994   4.232
 1894DOPC   GL221988  24.449  17.194   4.332
 1894DOPC   C1A21989  24.849  17.104   4.552
 1894DOPC   D2A21990  25.219  17.224   4.652
 1894DOPC   C3A21991  25.249  17.224   5.102
 1894DOPC   C4A21992  25.189  17.074   5.542
 1894DOPC   C1B21993  24.359  17.104   4.722
 1894DOPC   D2B21994  24.379  17.074   5.122
 1894DOPC   C3B21995  24.359  17.564   5.392
 1894DOPC   C4B21996  24.629  17.934   5.432
 1895DOPC   NC321997   5.049   7.114   2.892
 1895DOPC   PO421998   5.079   6.704   2.992
 1895DOPC   GL121999   4.959   6.874   3.472
 1895DOPC   GL222000   4.689   7.064   3.432
 1895DOPC   C1A22001   4.669   6.754   3.812
 1895DOPC   D2A22002   4.679   6.434   4.102
 1895DOPC   C3A22003   4.249   6.244   4.182
 1895DOPC   C4A22004   4.159   5.884   3.992
 1895DOPC   C1B22005   4.789   7.254   3.792
 1895DOPC   D2B22006   4.479   7.504   4.112
 1895DOPC   C3B22007   4.569   7.324   4.562
 1895DOPC   C4B22008   4.649   7.114   4.982
 1896DOPC   NC322009   9.069  16.034   8.502
 1896DOPC   PO422010   8.749  15.724   8.542
 1896DOPC   GL122011   8.639  15.704   8.162
 1896DOPC   GL222012   8.389  15.914   8.022
 1896DOPC   C1A22013   8.689  15.464   7.772
 1896DOPC   D2A22014   8.789  15.324   7.432
 1896DOPC   C3A22015   8.629  15.434   6.952
 1896DOPC   C4A22016   8.689  15.314   6.582
 1896DOPC   C1B22017   8.649  15.924   7.642
 1896DOPC   D2B22018   8.989  15.784   7.272
 1896DOPC   C3B22019   9.149  16.114   7.032
 1896DOPC   C4B22020   9.439  16.374   7.252
 1897DOPC   NC322021  10.609  11.044   4.342
 1897DOPC   PO422022  10.619  11.394   4.562
 1897DOPC   GL122023  10.599  11.384   5.032
 1897DOPC   GL222024  10.749  11.064   5.202
 1897DOPC   C1A22025  10.449  11.284   5.512
 1897DOPC   D2A22026  10.259  10.994   5.762
 1897DOPC   C3A22027  10.399  10.914   6.192
 1897DOPC   C4A22028  10.299  10.864   6.582
 1897DOPC   C1B22029  10.869  11.064   5.672
 1897DOPC   D2B22030  10.959  10.974   6.092
 1897DOPC   C3B22031  11.159  11.244   6.442
 1897DOPC   C4B22032  11.249  11.644   6.572
 1898DOPC   NC322033  16.559   8.714   4.492
 1898DOPC   PO422034  16.189   8.834   4.702
 1898DOPC   GL122035  16.339   8.774   5.122
 1898DOPC   GL222036  16.249   8.504   5.162
 1898DOPC   C1A22037  16.649   8.684   5.352
 1898DOPC   D2A22038  16.609   8.474   5.822
 1898DOPC   C3A22039  16.599   8.874   6.232
 1898DOPC   C4A22040  16.799   8.944   6.612
 1898DOPC   C1B22041  16.099   8.664   5.612
 1898DOPC   D2B22042  15.769   8.984   5.752
 1898DOPC   C3B22043  15.609   9.284   6.042
 1898DOPC   C4B22044  15.249   9.564   6.042
 1899DOPC   NC322045   1.999   2.754   7.092
 1899DOPC   PO422046   1.819   2.494   6.802
 1899DOPC   GL122047   1.949   2.334   6.462
 1899DOPC   GL222048   2.319   2.284   6.352
 1899DOPC   C1A22049   1.959   2.454   6.062
 1899DOPC   D2A22050   1.899   2.364   5.732
 1899DOPC   C3A22051   1.629   2.024   5.462
 1899DOPC   C4A22052   1.439   2.094   5.042
 1899DOPC   C1B22053   2.599   2.004   6.182
 1899DOPC   D2B22054   3.109   1.824   6.022
 1899DOPC   C3B22055   3.189   1.604   5.632
 1899DOPC   C4B22056   3.349   1.444   5.252
 1900DOPC   NC322057   8.529  22.131   8.272
 1900DOPC   PO422058   8.939  21.891   8.272
 1900DOPC   GL122059   8.899  22.151   7.872
 1900DOPC   GL222060   9.169  22.081   7.622
 1900DOPC   C1A22061   8.689  22.211   7.472
 1900DOPC   D2A22062   8.889  22.161   7.122
 1900DOPC   C3A22063   8.879  22.591   6.852
 1900DOPC   C4A22064   9.029  23.081   6.692
 1900DOPC   C1B22065   8.959  21.791   7.422
 1900DOPC   D2B22066   8.799  21.691   6.982
 1900DOPC   C3B22067   9.129  21.701   6.642
 1900DOPC   C4B22068   9.419  21.391   6.382
 1901DOPC   NC322069  25.459   1.044   8.162
 1901DOPC   PO422070  25.589   0.794   7.812
 1901DOPC   GL122071  25.429   0.844   7.372
 1901DOPC   GL222072  25.706   1.064   7.302
 1901DOPC   C1A22073  25.009   1.014   7.082
 1901DOPC   D2A22074  24.769   1.134   6.752
 1901DOPC   C3A22075  24.569   0.734   6.472
 1901DOPC   C4A22076  24.329   0.634   6.212
 1901DOPC   C1B22077  25.489   1.004   6.932
 1901DOPC   D2B22078  25.149   0.904   6.532
 1901DOPC   C3B22079  25.159   0.764   6.122
 1901DOPC   C4B22080  24.859   0.624   5.762
 1902DOPC   NC322081   1.639  21.811   7.862
 1902DOPC   PO422082   1.379  21.931   7.522
 1902DOPC   GL122083   1.589  21.971   7.222
 1902DOPC   GL222084   1.469  22.311   7.112
 1902DOPC   C1A22085   1.779  21.871   6.792
 1902DOPC   D2A22086   1.449  22.311   6.542
 1902DOPC   C3A22087   1.439  22.311   6.072
 1902DOPC   C4A22088   1.829  22.391   5.872
 1902DOPC   C1B22089   1.879  22.351   6.812
 1902DOPC   D2B22090   2.219  22.601   6.682
 1902DOPC   C3B22091   2.659  22.451   6.792
 1902DOPC   C4B22092   2.939  22.061   6.722
 1903DOPC   NC322093  17.719   5.334   7.892
 1903DOPC   PO422094  17.609   4.984   7.602
 1903DOPC   GL122095  17.489   5.284   7.402
 1903DOPC   GL222096  17.699   5.514   7.282
 1903DOPC   C1A22097  17.329   5.224   7.062
 1903DOPC   D2A22098  17.219   5.244   6.652
 1903DOPC   C3A22099  17.419   5.604   6.412
 1903DOPC   C4A22100  17.699   5.904   6.062
 1903DOPC   C1B22101  17.699   5.384   6.772
 1903DOPC   D2B22102  17.729   4.944   6.632
 1903DOPC   C3B22103  17.389   4.684   6.362
 1903DOPC   C4B22104  17.049   4.854   6.162
 1904DOPC   NC322105  25.399   9.354   6.822
 1904DOPC   PO422106  25.639   9.584   6.842
 1904DOPC   GL122107  25.509   9.704   6.492
 1904DOPC   GL222108  25.449  10.034   6.532
 1904DOPC   C1A22109  25.599   9.584   6.092
 1904DOPC   D2A22110  25.826   9.214   5.772
 1904DOPC   C3A22111  25.986   9.234   5.372
 1904DOPC   C4A22112  25.996   9.454   5.012
 1904DOPC   C1B22113  25.319  10.174   6.082
 1904DOPC   D2B22114  25.349  10.414   5.712
 1904DOPC   C3B22115  25.129  10.734   5.522
 1904DOPC   C4B22116  25.189  10.924   5.152
 1905DOPC   NC322117   3.259   5.114   3.162
 1905DOPC   PO422118   3.169   4.994   3.612
 1905DOPC   GL122119   3.369   4.914   4.012
 1905DOPC   GL222120   3.259   4.424   4.182
 1905DOPC   C1A22121   3.539   4.754   4.432
 1905DOPC   D2A22122   3.289   4.664   4.872
 1905DOPC   C3A22123   3.259   4.354   5.242
 1905DOPC   C4A22124   3.599   4.284   5.692
 1905DOPC   C1B22125   3.409   4.254   4.492
 1905DOPC   D2B22126   3.579   3.824   4.502
 1905DOPC   C3B22127   3.589   3.674   4.962
 1905DOPC   C4B22128   3.579   3.944   5.292
 1906DOPC   NC322129  12.579  20.114   4.202
 1906DOPC   PO422130  12.579  20.094   4.542
 1906DOPC   GL122131  12.559  20.204   4.992
 1906DOPC   GL222132  12.259  20.224   5.112
 1906DOPC   C1A22133  12.889  20.494   5.192
 1906DOPC   D2A22134  13.099  20.704   5.592
 1906DOPC   C3A22135  13.109  20.614   6.002
 1906DOPC   C4A22136  13.029  20.494   6.372
 1906DOPC   C1B22137  12.449  20.244   5.492
 1906DOPC   D2B22138  12.679  20.404   5.782
 1906DOPC   C3B22139  12.719  20.174   6.152
 1906DOPC   C4B22140  12.799  19.814   6.432
 1907DOPC   NC322141   1.669  18.324   3.712
 1907DOPC   PO422142   1.219  18.484   3.842
 1907DOPC   GL122143   1.389  18.344   4.212
 1907DOPC   GL222144   1.439  18.054   4.082
 1907DOPC   C1A22145   1.229  18.264   4.512
 1907DOPC   D2A22146   1.169  18.184   5.032
 1907DOPC   C3A22147   1.069  18.434   5.312
 1907DOPC   C4A22148   0.729  18.674   5.462
 1907DOPC   C1B22149   1.479  17.634   4.422
 1907DOPC   D2B22150   1.549  17.144   4.532
 1907DOPC   C3B22151   1.639  17.044   4.932
 1907DOPC   C4B22152   1.609  17.324   5.362
 1908DOPC   NC322153   8.929  22.501   8.372
 1908DOPC   PO422154   8.799  22.901   8.442
 1908DOPC   GL122155   8.699  22.801   7.992
 1908DOPC   GL222156   9.049  22.661   7.912
 1908DOPC   C1A22157   8.429  22.661   7.592
 1908DOPC   D2A22158   8.459  22.501   7.132
 1908DOPC   C3A22159   8.359  22.661   6.752
 1908DOPC   C4A22160   8.319  22.551   6.352
 1908DOPC   C1B22161   8.969  22.621   7.482
 1908DOPC   D2B22162   9.049  22.901   7.182
 1908DOPC   C3B22163   9.499  22.871   6.962
 1908DOPC   C4B22164   9.639  23.101   6.642
 1909DOPC   NC322165   7.209   0.244   3.152
 1909DOPC   PO422166   7.299   0.314   3.532
 1909DOPC   GL122167   7.379   0.384   3.942
 1909DOPC   GL222168   7.669   0.494   4.192
 1909DOPC   C1A22169   7.159   0.274   4.412
 1909DOPC   D2A22170   7.099   0.134   4.832
 1909DOPC   C3A22171   6.889  -0.196   4.922
 1909DOPC   C4A22172   6.699  -0.576   4.732
 1909DOPC   C1B22173   7.669   0.364   4.562
 1909DOPC   D2B22174   7.859   0.314   4.992
 1909DOPC   C3B22175   8.049  -0.116   5.222
 1909DOPC   C4B22176   8.169  -0.366   5.482
 1910DOPC   NC322177  18.359   0.794   3.902
 1910DOPC   PO422178  18.069   0.444   3.872
 1910DOPC   GL122179  17.839   0.284   4.172
 1910DOPC   GL222180  17.879  -0.106   4.282
 1910DOPC   C1A22181  17.889   0.354   4.552
 1910DOPC   D2A22182  17.899   0.274   5.022
 1910DOPC   C3A22183  17.549   0.404   5.302
 1910DOPC   C4A22184  17.369   0.654   5.622
 1910DOPC   C1B22185  17.919  -0.196   4.612
 1910DOPC   D2B22186  17.889  -0.226   5.122
 1910DOPC   C3B22187  17.869   0.084   5.442
 1910DOPC   C4B22188  17.979   0.474   5.492
 1911DOPC   NC322189   4.019   8.094   6.322
 1911DOPC   PO422190   4.259   7.744   6.372
 1911DOPC   GL122191   4.059   7.704   6.002
 1911DOPC   GL222192   3.839   7.424   5.992
 1911DOPC   C1A22193   3.869   7.604   5.532
 1911DOPC   D2A22194   3.699   7.364   5.272
 1911DOPC   C3A22195   3.339   7.444   5.012
 1911DOPC   C4A22196   3.519   7.614   4.652
 1911DOPC   C1B22197   3.789   7.094   5.702
 1911DOPC   D2B22198   3.709   6.864   5.322
 1911DOPC   C3B22199   3.699   6.544   5.552
 1911DOPC   C4B22200   3.819   6.164   5.272
 1912DOPC   NC322201   7.759  25.251   8.232
 1912DOPC   PO422202   7.409  25.201   7.892
 1912DOPC   GL122203   7.379  25.131   7.442
 1912DOPC   GL222204   7.059  25.191   7.442
 1912DOPC   C1A22205   7.579  25.131   7.022
 1912DOPC   D2A22206   7.429  25.211   6.602
 1912DOPC   C3A22207   7.599  25.111   6.192
 1912DOPC   C4A22208   7.859  24.731   6.002
 1912DOPC   C1B22209   7.059  25.161   6.922
 1912DOPC   D2B22210   6.799  24.941   6.722
 1912DOPC   C3B22211   6.849  25.211   6.392
 1912DOPC   C4B22212   7.139  25.281   6.122
 1913DOPC   NC322213   1.729  13.914   7.842
 1913DOPC   PO422214   1.359  14.204   7.552
 1913DOPC   GL122215   1.259  14.194   7.162
 1913DOPC   GL222216   1.329  14.584   7.032
 1913DOPC   C1A22217   0.889  14.214   6.852
 1913DOPC   D2A22218   0.649  14.004   6.512
 1913DOPC   C3A22219   0.559  13.994   6.122
 1913DOPC   C4A22220   0.239  14.114   5.752
 1913DOPC   C1B22221   1.409  14.264   6.702
 1913DOPC   D2B22222   1.529  14.114   6.272
 1913DOPC   C3B22223   1.209  14.104   5.922
 1913DOPC   C4B22224   0.779  14.244   5.782
 1914DOPC   NC322225  13.259   8.514   4.692
 1914DOPC   PO422226  13.169   8.094   4.352
 1914DOPC   GL122227  13.349   7.964   4.762
 1914DOPC   GL222228  13.149   8.004   4.952
 1914DOPC   C1A22229  13.459   7.664   5.202
 1914DOPC   D2A22230  13.389   7.314   5.482
 1914DOPC   C3A22231  12.929   7.274   5.582
 1914DOPC   C4A22232  12.639   7.374   5.902
 1914DOPC   C1B22233  13.309   8.214   5.352
 1914DOPC   D2B22234  13.199   8.214   5.802
 1914DOPC   C3B22235  13.419   8.454   6.142
 1914DOPC   C4B22236  13.599   8.534   6.582
 1915DOPC   NC322237  10.429   6.354   7.862
 1915DOPC   PO422238  10.109   6.594   7.912
 1915DOPC   GL122239  10.309   6.674   7.532
 1915DOPC   GL222240  10.569   6.954   7.582
 1915DOPC   C1A22241  10.249   6.424   7.152
 1915DOPC   D2A22242   9.869   6.194   7.172
 1915DOPC   C3A22243   9.789   5.804   7.122
 1915DOPC   C4A22244  10.099   5.504   6.932
 1915DOPC   C1B22245  10.629   6.924   7.122
 1915DOPC   D2B22246  10.549   7.104   6.812
 1915DOPC   C3B22247  10.779   7.044   6.412
 1915DOPC   C4B22248  11.049   6.914   6.142
 1916DOPC   NC322249  16.279   4.254   4.372
 1916DOPC   PO422250  16.389   4.734   4.512
 1916DOPC   GL122251  16.459   5.004   4.942
 1916DOPC   GL222252  16.439   4.694   5.112
 1916DOPC   C1A22253  16.369   5.374   5.212
 1916DOPC   D2A22254  16.229   5.744   5.312
 1916DOPC   C3A22255  16.099   5.874   5.592
 1916DOPC   C4A22256  16.069   6.124   5.982
 1916DOPC   C1B22257  16.719   4.764   5.402
 1916DOPC   D2B22258  16.849   5.074   5.772
 1916DOPC   C3B22259  16.509   5.234   6.012
 1916DOPC   C4B22260  16.469   5.684   6.392
 1917DOPC   NC322261   0.339  11.534   3.772
 1917DOPC   PO422262   0.219  11.954   3.722
 1917DOPC   GL122263   0.021  11.844   4.072
 1917DOPC   GL222264  -0.019  12.064   4.342
 1917DOPC   C1A22265   0.199  11.554   4.362
 1917DOPC   D2A22266   0.219  11.394   4.822
 1917DOPC   C3A22267   0.379  11.544   5.172
 1917DOPC   C4A22268   0.319  11.464   5.652
 1917DOPC   C1B22269   0.119  11.964   4.732
 1917DOPC   D2B22270   0.099  11.924   5.212
 1917DOPC   C3B22271  -0.169  11.724   5.522
 1917DOPC   C4B22272  -0.499  11.384   5.492
 1918DOPC   NC322273  20.339  14.364   7.622
 1918DOPC   PO422274  20.229  13.914   7.582
 1918DOPC   GL122275  20.139  14.024   7.122
 1918DOPC   GL222276  20.419  14.394   7.092
 1918DOPC   C1A22277  20.189  14.154   6.752
 1918DOPC   D2A22278  20.159  13.954   6.342
 1918DOPC   C3A22279  19.829  14.264   6.162
 1918DOPC   C4A22280  19.409  14.404   6.142
 1918DOPC   C1B22281  20.159  14.674   6.722
 1918DOPC   D2B22282  19.719  14.744   6.502
 1918DOPC   C3B22283  19.719  14.754   6.032
 1918DOPC   C4B22284  19.379  14.794   5.792
 1919DOPC   NC322285   6.059  17.314   4.252
 1919DOPC   PO422286   5.649  17.244   4.092
 1919DOPC   GL122287   5.519  17.204   4.462
 1919DOPC   GL222288   5.369  17.004   4.632
 1919DOPC   C1A22289   5.249  17.544   4.682
 1919DOPC   D2A22290   5.009  17.794   5.002
 1919DOPC   C3A22291   5.089  18.184   5.302
 1919DOPC   C4A22292   4.929  18.314   5.622
 1919DOPC   C1B22293   4.989  16.764   4.642
 1919DOPC   D2B22294   4.729  16.634   4.982
 1919DOPC   C3B22295   4.809  16.714   5.342
 1919DOPC   C4B22296   5.109  16.634   5.692
 1920DOPC   NC322297   1.689   5.204   3.502
 1920DOPC   PO422298   2.009   5.034   3.442
 1920DOPC   GL122299   1.969   5.144   3.892
 1920DOPC   GL222300   2.109   4.784   3.932
 1920DOPC   C1A22301   1.729   5.394   4.122
 1920DOPC   D2A22302   1.439   5.414   4.352
 1920DOPC   C3A22303   0.999   5.254   4.302
 1920DOPC   C4A22304   0.679   5.194   4.632
 1920DOPC   C1B22305   2.169   4.894   4.322
 1920DOPC   D2B22306   2.429   4.644   4.542
 1920DOPC   C3B22307   2.299   4.204   4.652
 1920DOPC   C4B22308   1.999   3.974   4.852
 1921DOPC   NC322309   3.789   0.544   7.462
 1921DOPC   PO422310   3.479   0.524   7.112
 1921DOPC   GL122311   3.469   0.314   6.752
 1921DOPC   GL222312   3.329   0.564   6.632
 1921DOPC   C1A22313   3.459   0.224   6.252
 1921DOPC   D2A22314   3.069  -0.006   6.092
 1921DOPC   C3A22315   2.939  -0.416   6.112
 1921DOPC   C4A22316   2.879  -0.876   6.202
 1921DOPC   C1B22317   3.499   0.864   6.352
 1921DOPC   D2B22318   3.839   0.914   6.192
 1921DOPC   C3B22319   3.869   0.894   5.662
 1921DOPC   C4B22320   4.069   1.284   5.412
 1922DOPC   NC322321  22.679  16.854   3.822
 1922DOPC   PO422322  22.239  16.934   3.772
 1922DOPC   GL122323  22.269  16.814   4.232
 1922DOPC   GL222324  22.009  16.794   4.482
 1922DOPC   C1A22325  22.579  16.784   4.592
 1922DOPC   D2A22326  22.659  16.904   5.012
 1922DOPC   C3A22327  22.449  17.114   5.272
 1922DOPC   C4A22328  22.659  17.274   5.672
 1922DOPC   C1B22329  21.919  16.674   4.902
 1922DOPC   D2B22330  21.849  16.384   5.062
 1922DOPC   C3B22331  21.789  16.304   5.482
 1922DOPC   C4B22332  21.729  16.474   5.932
 1923DOPC   NC322333  17.999  14.264   7.742
 1923DOPC   PO422334  18.309  14.504   7.652
 1923DOPC   GL122335  18.219  14.534   7.292
 1923DOPC   GL222336  18.149  14.774   7.012
 1923DOPC   C1A22337  18.119  14.284   6.872
 1923DOPC   D2A22338  18.039  14.244   6.442
 1923DOPC   C3A22339  17.779  14.054   6.142
 1923DOPC   C4A22340  17.489  14.214   5.872
 1923DOPC   C1B22341  17.809  14.644   6.662
 1923DOPC   D2B22342  17.629  14.494   6.252
 1923DOPC   C3B22343  17.469  14.754   5.912
 1923DOPC   C4B22344  17.349  14.974   5.622
 1924DOPC   NC322345  16.349   5.254   4.512
 1924DOPC   PO422346  15.959   5.034   4.622
 1924DOPC   GL122347  15.949   4.954   5.072
 1924DOPC   GL222348  15.859   4.674   5.112
 1924DOPC   C1A22349  15.949   5.114   5.502
 1924DOPC   D2A22350  16.169   5.354   5.692
 1924DOPC   C3A22351  16.069   5.534   5.992
 1924DOPC   C4A22352  15.719   5.844   6.192
 1924DOPC   C1B22353  15.739   4.674   5.562
 1924DOPC   D2B22354  15.749   4.534   6.012
 1924DOPC   C3B22355  16.179   4.554   6.162
 1924DOPC   C4B22356  16.489   4.764   6.392
 1925DOPC   NC322357  19.809  16.054   7.422
 1925DOPC   PO422358  20.069  15.634   7.532
 1925DOPC   GL122359  20.089  15.724   7.102
 1925DOPC   GL222360  19.659  15.664   7.102
 1925DOPC   C1A22361  20.129  15.724   6.642
 1925DOPC   D2A22362  20.149  15.584   6.252
 1925DOPC   C3A22363  20.459  15.254   5.982
 1925DOPC   C4A22364  20.439  15.024   5.632
 1925DOPC   C1B22365  19.659  15.884   6.682
 1925DOPC   D2B22366  19.529  16.204   6.482
 1925DOPC   C3B22367  19.529  16.354   6.052
 1925DOPC   C4B22368  19.459  16.644   5.792
 1926DOPC   NC322369  19.929   4.634   3.702
 1926DOPC   PO422370  19.429   4.614   3.972
 1926DOPC   GL122371  19.789   4.484   4.222
 1926DOPC   GL222372  20.119   4.644   4.212
 1926DOPC   C1A22373  19.759   4.504   4.692
 1926DOPC   D2A22374  19.969   4.264   4.932
 1926DOPC   C3A22375  20.219   4.204   5.262
 1926DOPC   C4A22376  20.459   3.864   5.452
 1926DOPC   C1B22377  20.339   4.444   4.602
 1926DOPC   D2B22378  20.549   4.484   4.992
 1926DOPC   C3B22379  20.589   4.874   5.192
 1926DOPC   C4B22380  20.749   4.984   5.492
 1927DOPC   NC322381  21.899  19.104   3.782
 1927DOPC   PO422382  22.449  18.954   3.742
 1927DOPC   GL122383  22.669  19.074   4.052
 1927DOPC   GL222384  22.599  18.924   4.412
 1927DOPC   C1A22385  22.799  19.454   4.302
 1927DOPC   D2A22386  23.129  19.514   4.632
 1927DOPC   C3A22387  23.299  19.874   4.732
 1927DOPC   C4A22388  23.709  19.964   4.902
 1927DOPC   C1B22389  22.699  19.254   4.712
 1927DOPC   D2B22390  23.009  19.334   5.142
 1927DOPC   C3B22391  23.309  19.594   5.172
 1927DOPC   C4B22392  23.589  19.824   5.502
 1928DOPC   NC322393   6.029   3.444   3.342
 1928DOPC   PO422394   5.959   3.564   3.832
 1928DOPC   GL122395   5.869   3.544   4.312
 1928DOPC   GL222396   5.859   3.954   4.312
 1928DOPC   C1A22397   5.939   3.444   4.802
 1928DOPC   D2A22398   5.959   3.374   5.222
 1928DOPC   C3A22399   5.619   3.554   5.572
 1928DOPC   C4A22400   5.319   3.184   5.722
 1928DOPC   C1B22401   5.509   4.004   4.682
 1928DOPC   D2B22402   5.169   4.184   4.492
 1928DOPC   C3B22403   4.889   4.414   4.792
 1928DOPC   C4B22404   4.709   4.504   5.232
 1929DOPC   NC322405  14.729  19.454   4.782
 1929DOPC   PO422406  14.809  19.784   4.522
 1929DOPC   GL122407  14.629  19.884   4.992
 1929DOPC   GL222408  14.379  19.654   5.022
 1929DOPC   C1A22409  14.659  20.194   5.372
 1929DOPC   D2A22410  14.769  20.114   5.832
 1929DOPC   C3A22411  14.419  20.144   5.912
 1929DOPC   C4A22412  14.219  19.924   6.212
 1929DOPC   C1B22413  14.399  19.564   5.482
 1929DOPC   D2B22414  14.609  19.604   5.902
 1929DOPC   C3B22415  14.789  19.864   6.302
 1929DOPC   C4B22416  14.989  20.144   6.492
 1930DOPC   NC322417  20.209  25.901   3.772
 1930DOPC   PO422418  19.829  25.571   3.752
 1930DOPC   GL122419  19.869  25.451   4.172
 1930DOPC   GL222420  19.619  25.421   4.442
 1930DOPC   C1A22421  20.089  25.431   4.532
 1930DOPC   D2A22422  19.999  25.151   4.852
 1930DOPC   C3A22423  19.709  25.111   5.322
 1930DOPC   C4A22424  19.419  25.161   5.702
 1930DOPC   C1B22425  19.469  25.261   4.792
 1930DOPC   D2B22426  19.299  25.481   5.202
 1930DOPC   C3B22427  19.229  25.691   5.602
 1930DOPC   C4B22428  18.979  25.951   5.852
 1931DOPC   NC322429  23.359  23.121   3.932
 1931DOPC   PO422430  22.999  22.871   3.862
 1931DOPC   GL122431  23.019  22.991   4.362
 1931DOPC   GL222432  22.949  22.721   4.542
 1931DOPC   C1A22433  22.929  23.371   4.632
 1931DOPC   D2A22434  22.739  23.301   5.022
 1931DOPC   C3A22435  22.629  23.611   5.412
 1931DOPC   C4A22436  22.619  23.441   5.832
 1931DOPC   C1B22437  22.729  22.791   4.972
 1931DOPC   D2B22438  22.729  22.511   5.312
 1931DOPC   C3B22439  22.329  22.501   5.532
 1931DOPC   C4B22440  22.039  22.221   5.832
 1932DOPC   NC322441  20.139  15.144   3.972
 1932DOPC   PO422442  19.769  14.924   3.902
 1932DOPC   GL122443  19.739  14.774   4.262
 1932DOPC   GL222444  19.549  15.014   4.552
 1932DOPC   C1A22445  19.979  14.804   4.582
 1932DOPC   D2A22446  19.909  15.114   4.942
 1932DOPC   C3A22447  19.959  15.504   4.832
 1932DOPC   C4A22448  19.799  15.934   4.752
 1932DOPC   C1B22449  19.379  15.024   4.972
 1932DOPC   D2B22450  19.279  14.654   5.282
 1932DOPC   C3B22451  18.929  14.684   5.582
 1932DOPC   C4B22452  18.599  14.654   5.802
 1933DOPC   NC322453  12.589  10.234   9.042
 1933DOPC   PO422454  12.269  10.114   8.762
 1933DOPC   GL122455  12.409  10.184   8.412
 1933DOPC   GL222456  12.759  10.254   8.512
 1933DOPC   C1A22457  12.299  10.444   8.012
 1933DOPC   D2A22458  12.579  10.684   7.922
 1933DOPC   C3A22459  12.979  10.444   7.902
 1933DOPC   C4A22460  13.459  10.354   8.092
 1933DOPC   C1B22461  13.029  10.584   8.352
 1933DOPC   D2B22462  13.349  10.934   8.472
 1933DOPC   C3B22463  13.519  11.304   8.082
 1933DOPC   C4B22464  13.929  11.304   7.892
 1934DOPC   NC322465  19.959   5.544   3.952
 1934DOPC   PO422466  19.489   5.494   4.152
 1934DOPC   GL122467  19.839   5.624   4.432
 1934DOPC   GL222468  20.149   5.694   4.452
 1934DOPC   C1A22469  19.779   5.544   4.852
 1934DOPC   D2A22470  19.929   5.254   5.222
 1934DOPC   C3A22471  20.259   5.034   5.562
 1934DOPC   C4A22472  20.489   4.824   5.982
 1934DOPC   C1B22473  19.989   6.114   4.532
 1934DOPC   D2B22474  19.699   6.294   4.852
 1934DOPC   C3B22475  19.499   6.654   4.722
 1934DOPC   C4B22476  19.469   6.964   5.102
 1935DOPC   NC322477   7.459   9.154   7.902
 1935DOPC   PO422478   7.329   9.334   7.552
 1935DOPC   GL122479   7.599   9.244   7.152
 1935DOPC   GL222480   7.829   9.214   7.332
 1935DOPC   C1A22481   7.769   9.014   6.742
 1935DOPC   D2A22482   7.879   8.974   6.312
 1935DOPC   C3A22483   7.849   9.104   5.882
 1935DOPC   C4A22484   7.549   9.234   5.712
 1935DOPC   C1B22485   8.269   9.154   7.092
 1935DOPC   D2B22486   8.359   9.324   6.732
 1935DOPC   C3B22487   8.259   9.324   6.292
 1935DOPC   C4B22488   8.089   9.674   5.982
 1936DOPC   NC322489  16.019  14.634   8.352
 1936DOPC   PO422490  16.319  14.354   8.182
 1936DOPC   GL122491  16.399  14.104   7.722
 1936DOPC   GL222492  16.559  13.864   7.632
 1936DOPC   C1A22493  16.329  14.064   7.292
 1936DOPC   D2A22494  16.579  13.914   7.002
 1936DOPC   C3A22495  16.319  13.704   6.902
 1936DOPC   C4A22496  16.069  13.474   6.702
 1936DOPC   C1B22497  16.819  14.184   7.372
 1936DOPC   D2B22498  16.689  14.414   7.022
 1936DOPC   C3B22499  16.509  14.364   6.682
 1936DOPC   C4B22500  16.129  14.604   6.552
 1937DOPC   NC322501  23.619  20.534   7.052
 1937DOPC   PO422502  24.099  20.484   7.082
 1937DOPC   GL122503  24.069  20.824   6.912
 1937DOPC   GL222504  23.909  21.104   7.002
 1937DOPC   C1A22505  24.319  20.834   6.462
 1937DOPC   D2A22506  24.199  20.854   6.032
 1937DOPC   C3A22507  24.529  20.644   5.742
 1937DOPC   C4A22508  24.729  20.234   5.832
 1937DOPC   C1B22509  23.909  21.234   6.632
 1937DOPC   D2B22510  23.969  21.371   6.262
 1937DOPC   C3B22511  24.299  21.274   5.812
 1937DOPC   C4B22512  24.699  21.114   5.742
 1938DOPC   NC322513   1.119  18.464   7.162
 1938DOPC   PO422514   1.519  18.564   7.412
 1938DOPC   GL122515   1.699  18.794   7.102
 1938DOPC   GL222516   1.999  18.644   6.972
 1938DOPC   C1A22517   1.709  18.944   6.712
 1938DOPC   D2A22518   1.709  19.054   6.292
 1938DOPC   C3A22519   1.729  18.734   5.902
 1938DOPC   C4A22520   1.519  18.754   5.462
 1938DOPC   C1B22521   2.229  18.934   6.732
 1938DOPC   D2B22522   2.629  19.074   6.442
 1938DOPC   C3B22523   3.019  18.754   6.412
 1938DOPC   C4B22524   3.329  18.404   6.532
 1939DOPC   NC322525   2.209   4.684  11.432
 1939DOPC   PO422526   2.099   5.044  11.232
 1939DOPC   GL122527   1.979   5.054  11.662
 1939DOPC   GL222528   1.769   5.244  11.892
 1939DOPC   C1A22529   2.009   4.844  11.982
 1939DOPC   D2A22530   1.949   4.534  12.352
 1939DOPC   C3A22531   1.609   4.504  12.512
 1939DOPC   C4A22532   1.499   4.204  12.912
 1939DOPC   C1B22533   1.639   5.544  12.202
 1939DOPC   D2B22534   1.859   5.664  12.642
 1939DOPC   C3B22535   2.049   5.344  12.832
 1939DOPC   C4B22536   1.879   5.034  13.132
 1940DOPC   NC322537  19.309  10.374   3.842
 1940DOPC   PO422538  19.119  10.754   3.982
 1940DOPC   GL122539  19.449  11.024   4.192
 1940DOPC   GL222540  19.249  11.374   4.242
 1940DOPC   C1A22541  19.759  10.774   4.422
 1940DOPC   D2A22542  20.079  10.914   4.742
 1940DOPC   C3A22543  19.929  10.834   5.142
 1940DOPC   C4A22544  19.929  11.064   5.512
 1940DOPC   C1B22545  19.369  11.214   4.702
 1940DOPC   D2B22546  19.459  10.874   4.872
 1940DOPC   C3B22547  19.469  10.454   5.142
 1940DOPC   C4B22548  19.269  10.114   5.212
 1941DOPC   NC322549  11.579  13.454   5.452
 1941DOPC   PO422550  11.149  13.514   5.392
 1941DOPC   GL122551  11.079  13.524   5.822
 1941DOPC   GL222552  10.999  13.924   6.032
 1941DOPC   C1A22553  10.819  13.474   6.182
 1941DOPC   D2A22554  10.549  13.414   6.602
 1941DOPC   C3A22555  10.459  13.654   6.922
 1941DOPC   C4A22556  10.159  13.394   7.062
 1941DOPC   C1B22557  11.139  13.864   6.452
 1941DOPC   D2B22558  11.129  13.774   6.852
 1941DOPC   C3B22559  10.919  13.354   7.002
 1941DOPC   C4B22560  11.009  12.914   6.962
 1942DOPC   NC322561   1.039  13.144   3.702
 1942DOPC   PO422562   0.849  13.544   3.872
 1942DOPC   GL122563   0.999  13.614   4.292
 1942DOPC   GL222564   1.199  13.724   4.252
 1942DOPC   C1A22565   0.969  13.364   4.572
 1942DOPC   D2A22566   0.889  13.004   4.702
 1942DOPC   C3A22567   1.009  12.724   5.032
 1942DOPC   C4A22568   0.979  12.764   5.462
 1942DOPC   C1B22569   1.309  13.624   4.782
 1942DOPC   D2B22570   1.079  13.234   5.082
 1942DOPC   C3B22571   1.019  13.254   5.592
 1942DOPC   C4B22572   0.919  13.084   6.052
 1943DOPC   NC322573   0.059  12.614   3.222
 1943DOPC   PO422574   0.249  12.584   3.632
 1943DOPC   GL122575   0.169  12.434   4.042
 1943DOPC   GL222576  -0.059  12.534   4.192
 1943DOPC   C1A22577   0.319  12.484   4.472
 1943DOPC   D2A22578   0.199  12.384   4.932
 1943DOPC   C3A22579   0.419  12.354   5.282
 1943DOPC   C4A22580   0.469  12.514   5.672
 1943DOPC   C1B22581  -0.269  12.334   4.632
 1943DOPC   D2B22582  -0.419  12.014   4.932
 1943DOPC   C3B22583  -0.439  12.204   5.272
 1943DOPC   C4B22584  -0.259  12.164   5.682
 1944DOPC   NC322585  16.959  18.674   3.392
 1944DOPC   PO422586  17.049  18.614   3.842
 1944DOPC   GL122587  16.839  18.424   4.232
 1944DOPC   GL222588  17.099  18.244   4.532
 1944DOPC   C1A22589  16.639  18.544   4.622
 1944DOPC   D2A22590  16.699  18.914   4.882
 1944DOPC   C3A22591  16.969  19.204   4.852
 1944DOPC   C4A22592  17.379  19.234   4.892
 1944DOPC   C1B22593  16.939  18.354   4.942
 1944DOPC   D2B22594  16.799  18.604   5.332
 1944DOPC   C3B22595  16.989  18.994   5.362
 1944DOPC   C4B22596  16.819  19.364   5.492
 1945DOPC   NC322597   5.679   8.064   7.052
 1945DOPC   PO422598   5.559   8.494   7.182
 1945DOPC   GL122599   5.419   8.704   6.922
 1945DOPC   GL222600   5.459   8.424   6.702
 1945DOPC   C1A22601   5.449   9.114   6.652
 1945DOPC   D2A22602   5.219   9.364   6.482
 1945DOPC   C3A22603   5.359   9.414   6.002
 1945DOPC   C4A22604   5.459   9.414   5.512
 1945DOPC   C1B22605   5.839   8.534   6.432
 1945DOPC   D2B22606   6.209   8.704   6.532
 1945DOPC   C3B22607   6.489   8.854   6.122
 1945DOPC   C4B22608   6.889   9.004   6.112
 1946DOPC   NC322609  23.419  14.524   7.422
 1946DOPC   PO422610  23.759  14.324   7.512
 1946DOPC   GL122611  23.749  14.134   7.142
 1946DOPC   GL222612  24.059  13.954   7.082
 1946DOPC   C1A22613  23.829  14.084   6.652
 1946DOPC   D2A22614  24.209  14.124   6.292
 1946DOPC   C3A22615  24.099  14.004   5.932
 1946DOPC   C4A22616  24.049  13.844   5.512
 1946DOPC   C1B22617  24.379  14.194   6.772
 1946DOPC   D2B22618  24.709  14.104   6.432
 1946DOPC   C3B22619  24.589  13.894   6.042
 1946DOPC   C4B22620  24.649  13.684   5.612
 1947DOPC   NC322621  11.899   5.594   4.402
 1947DOPC   PO422622  11.559   5.904   4.422
 1947DOPC   GL122623  11.479   5.704   4.752
 1947DOPC   GL222624  11.799   5.704   4.902
 1947DOPC   C1A22625  11.459   5.514   5.192
 1947DOPC   D2A22626  11.509   5.704   5.602
 1947DOPC   C3A22627  11.409   6.054   5.622
 1947DOPC   C4A22628  11.369   6.414   5.472
 1947DOPC   C1B22629  11.909   5.554   5.322
 1947DOPC   D2B22630  12.079   5.474   5.742
 1947DOPC   C3B22631  12.459   5.374   5.802
 1947DOPC   C4B22632  12.679   5.254   6.182
 1948DOPC   NC322633  23.799  14.914   3.592
 1948DOPC   PO422634  23.939  14.554   3.952
 1948DOPC   GL122635  23.929  14.314   4.292
 1948DOPC   GL222636  23.959  14.004   4.252
 1948DOPC   C1A22637  24.019  14.424   4.722
 1948DOPC   D2A22638  23.999  13.994   4.952
 1948DOPC   C3A22639  23.529  13.924   5.252
 1948DOPC   C4A22640  23.139  13.984   5.402
 1948DOPC   C1B22641  24.269  13.974   4.542
 1948DOPC   D2B22642  24.449  13.614   4.702
 1948DOPC   C3B22643  24.299  13.514   5.152
 1948DOPC   C4B22644  23.799  13.414   5.252
 1949DOPC   NC322645   9.489  13.624   3.742
 1949DOPC   PO422646   9.519  13.944   4.122
 1949DOPC   GL122647   9.599  13.714   4.622
 1949DOPC   GL222648   9.669  13.904   4.892
 1949DOPC   C1A22649   9.279  13.614   4.942
 1949DOPC   D2A22650   8.789  13.514   4.952
 1949DOPC   C3A22651   8.389  13.384   5.182
 1949DOPC   C4A22652   8.069  13.334   5.432
 1949DOPC   C1B22653   9.679  13.564   5.272
 1949DOPC   D2B22654   9.489  13.544   5.632
 1949DOPC   C3B22655   9.519  14.044   5.732
 1949DOPC   C4B22656   9.259  14.384   5.762
 1950DOPC   NC322657   0.959  25.901   3.612
 1950DOPC   PO422658   1.169  25.501   3.732
 1950DOPC   GL122659   1.379  25.251   4.132
 1950DOPC   GL222660   1.509  25.391   4.392
 1950DOPC   C1A22661   1.279  24.991   4.552
 1950DOPC   D2A22662   1.239  24.681   4.842
 1950DOPC   C3A22663   1.239  24.631   5.222
 1950DOPC   C4A22664   0.989  24.771   5.542
 1950DOPC   C1B22665   1.189  25.451   4.672
 1950DOPC   D2B22666   1.209  25.091   5.072
 1950DOPC   C3B22667   0.769  25.191   5.252
 1950DOPC   C4B22668   0.489  25.441   5.372
 1951DOPC   NC322669  19.469  14.704   3.622
 1951DOPC   PO422670  19.509  14.384   3.992
 1951DOPC   GL122671  19.429  14.354   4.392
 1951DOPC   GL222672  19.379  13.954   4.502
 1951DOPC   C1A22673  19.509  14.504   4.782
 1951DOPC   D2A22674  19.789  14.644   5.032
 1951DOPC   C3A22675  19.739  14.834   5.352
 1951DOPC   C4A22676  19.979  15.004   5.662
 1951DOPC   C1B22677  19.409  13.974   4.882
 1951DOPC   D2B22678  19.819  13.804   5.092
 1951DOPC   C3B22679  20.129  14.054   5.142
 1951DOPC   C4B22680  20.489  14.214   5.152
 1952DOPC   NC322681   7.469   0.364   7.422
 1952DOPC   PO422682   7.179   0.044   7.652
 1952DOPC   GL122683   7.259  -0.026   7.192
 1952DOPC   GL222684   6.959   0.044   7.112
 1952DOPC   C1A22685   7.529   0.004   6.862
 1952DOPC   D2A22686   7.559   0.054   6.342
 1952DOPC   C3A22687   7.489   0.504   6.312
 1952DOPC   C4A22688   7.339   0.864   6.242
 1952DOPC   C1B22689   6.949   0.084   6.602
 1952DOPC   D2B22690   7.079   0.164   6.102
 1952DOPC   C3B22691   7.289  -0.006   5.762
 1952DOPC   C4B22692   7.089  -0.166   5.442
 1953DOPC   NC322693  13.039  19.844   4.492
 1953DOPC   PO422694  13.149  20.224   4.422
 1953DOPC   GL122695  13.259  20.444   4.792
 1953DOPC   GL222696  13.569  20.444   4.712
 1953DOPC   C1A22697  13.369  20.714   5.182
 1953DOPC   D2A22698  13.589  20.544   5.602
 1953DOPC   C3A22699  13.639  20.784   5.992
 1953DOPC   C4A22700  13.379  20.854   6.332
 1953DOPC   C1B22701  13.829  20.474   5.182
 1953DOPC   D2B22702  14.009  20.704   5.592
 1953DOPC   C3B22703  14.459  20.634   5.712
 1953DOPC   C4B22704  14.679  20.534   6.032
 1954DOPC   NC322705   3.399  10.964   3.622
 1954DOPC   PO422706   3.289  11.274   3.432
 1954DOPC   GL122707   3.129  11.364   3.882
 1954DOPC   GL222708   3.109  11.644   4.162
 1954DOPC   C1A22709   3.109  11.164   4.272
 1954DOPC   D2A22710   3.159  11.084   4.632
 1954DOPC   C3A22711   3.539  10.954   4.812
 1954DOPC   C4A22712   3.649  10.894   5.232
 1954DOPC   C1B22713   3.249  11.884   4.502
 1954DOPC   D2B22714   3.339  11.974   5.002
 1954DOPC   C3B22715   3.169  11.744   5.362
 1954DOPC   C4B22716   3.359  11.744   5.802
 1955DOPC   NC322717   7.289  19.674   8.062
 1955DOPC   PO422718   7.049  19.294   8.012
 1955DOPC   GL122719   7.029  19.424   7.642
 1955DOPC   GL222720   7.049  19.704   7.612
 1955DOPC   C1A22721   6.589  19.434   7.502
 1955DOPC   D2A22722   6.409  19.044   7.322
 1955DOPC   C3A22723   6.609  18.934   6.922
 1955DOPC   C4A22724   6.899  18.854   6.592
 1955DOPC   C1B22725   7.029  19.634   7.192
 1955DOPC   D2B22726   6.719  19.414   6.972
 1955DOPC   C3B22727   6.599  19.324   6.542
 1955DOPC   C4B22728   6.999  19.264   6.332
 1956DOPC   NC322729   8.129  15.584  15.312
 1956DOPC   PO422730   8.389  15.754  14.962
 1956DOPC   GL122731   8.299  15.584  14.602
 1956DOPC   GL222732   8.469  15.224  14.482
 1956DOPC   C1A22733   8.099  15.484  14.112
 1956DOPC   D2A22734   8.309  15.504  13.662
 1956DOPC   C3A22735   8.079  15.474  13.292
 1956DOPC   C4A22736   7.709  15.344  12.912
 1956DOPC   C1B22737   8.819  15.264  14.132
 1956DOPC   D2B22738   8.779  15.434  13.682
 1956DOPC   C3B22739   9.029  15.284  13.342
 1956DOPC   C4B22740   9.229  15.004  13.252
 1957DOPC   NC322741  13.749   9.794  14.082
 1957DOPC   PO422742  14.069  10.144  14.192
 1957DOPC   GL122743  13.899  10.224  13.812
 1957DOPC   GL222744  13.659  10.394  13.722
 1957DOPC   C1A22745  13.789  10.014  13.442
 1957DOPC   D2A22746  13.899   9.944  13.102
 1957DOPC   C3A22747  13.859   9.634  12.772
 1957DOPC   C4A22748  14.049   9.294  12.522
 1957DOPC   C1B22749  13.719  10.574  13.272
 1957DOPC   D2B22750  13.819  10.454  12.892
 1957DOPC   C3B22751  13.479  10.414  12.532
 1957DOPC   C4B22752  13.379  10.724  12.262
 1958DOPC   NC322753  11.369  14.774  11.222
 1958DOPC   PO422754  10.969  14.894  10.942
 1958DOPC   GL122755  10.819  14.774  11.412
 1958DOPC   GL222756  10.809  14.484  11.332
 1958DOPC   C1A22757  11.109  14.874  11.872
 1958DOPC   D2A22758  11.189  14.934  12.312
 1958DOPC   C3A22759  11.319  15.344  12.382
 1958DOPC   C4A22760  11.379  15.764  12.372
 1958DOPC   C1B22761  11.079  14.414  11.732
 1958DOPC   D2B22762  11.319  14.414  12.112
 1958DOPC   C3B22763  11.219  14.174  12.442
 1958DOPC   C4B22764  10.909  13.974  12.782
 1959DOPC   NC322765  15.119   6.164  15.032
 1959DOPC   PO422766  15.199   5.724  14.802
 1959DOPC   GL122767  15.519   5.594  14.442
 1959DOPC   GL222768  15.759   5.374  14.462
 1959DOPC   C1A22769  15.749   5.744  14.102
 1959DOPC   D2A22770  15.859   5.984  13.742
 1959DOPC   C3A22771  15.929   5.834  13.262
 1959DOPC   C4A22772  16.339   5.614  13.052
 1959DOPC   C1B22773  16.039   5.114  14.262
 1959DOPC   D2B22774  16.159   4.964  13.842
 1959DOPC   C3B22775  16.559   5.044  13.762
 1959DOPC   C4B22776  16.879   5.034  14.092
 1960DOPC   NC322777  12.029   0.574   8.692
 1960DOPC   PO422778  11.969   1.004   8.512
 1960DOPC   GL122779  12.069   0.824   8.032
 1960DOPC   GL222780  12.019   1.004   7.702
 1960DOPC   C1A22781  11.959   0.504   7.752
 1960DOPC   D2A22782  11.579   0.314   7.482
 1960DOPC   C3A22783  11.709  -0.006   7.402
 1960DOPC   C4A22784  11.649  -0.326   7.202
 1960DOPC   C1B22785  12.149   1.224   7.322
 1960DOPC   D2B22786  12.549   1.154   7.092
 1960DOPC   C3B22787  12.629   1.294   6.622
 1960DOPC   C4B22788  12.729   1.064   6.372
 1961DOPC   NC322789  12.739  16.774  11.002
 1961DOPC   PO422790  13.109  16.524  10.932
 1961DOPC   GL122791  13.069  16.214  11.282
 1961DOPC   GL222792  12.759  16.064  11.452
 1961DOPC   C1A22793  13.279  16.024  11.582
 1961DOPC   D2A22794  13.739  16.104  11.692
 1961DOPC   C3A22795  14.119  15.944  12.122
 1961DOPC   C4A22796  14.329  15.684  12.312
 1961DOPC   C1B22797  12.719  16.434  11.672
 1961DOPC   D2B22798  12.459  16.544  12.112
 1961DOPC   C3B22799  12.359  16.964  12.152
 1961DOPC   C4B22800  12.359  17.254  12.512
 1962DOPC   NC322801  15.449  22.521  15.822
 1962DOPC   PO422802  15.019  22.341  15.642
 1962DOPC   GL122803  14.969  22.461  15.152
 1962DOPC   GL222804  14.779  22.631  15.022
 1962DOPC   C1A22805  14.909  22.271  14.712
 1962DOPC   D2A22806  14.859  22.391  14.242
 1962DOPC   C3A22807  15.009  22.571  13.812
 1962DOPC   C4A22808  15.229  22.791  13.602
 1962DOPC   C1B22809  14.579  22.611  14.552
 1962DOPC   D2B22810  14.339  22.501  14.262
 1962DOPC   C3B22811  13.979  22.791  14.342
 1962DOPC   C4B22812  13.519  22.811  14.142
 1963DOPC   NC322813   7.169  18.144  15.002
 1963DOPC   PO422814   7.489  18.144  14.832
 1963DOPC   GL122815   7.389  18.234  14.512
 1963DOPC   GL222816   7.109  18.074  14.372
 1963DOPC   C1A22817   7.199  18.514  14.102
 1963DOPC   D2A22818   7.369  18.704  13.722
 1963DOPC   C3A22819   7.439  19.174  13.742
 1963DOPC   C4A22820   7.109  19.434  13.872
 1963DOPC   C1B22821   6.699  18.384  14.182
 1963DOPC   D2B22822   6.729  18.684  13.892
 1963DOPC   C3B22823   6.959  19.004  13.722
 1963DOPC   C4B22824   7.089  19.304  13.342
 1964DOPC   NC322825   8.599   3.334  15.042
 1964DOPC   PO422826   8.379   3.154  14.712
 1964DOPC   GL122827   8.379   3.144  14.342
 1964DOPC   GL222828   8.159   3.174  14.032
 1964DOPC   C1A22829   8.639   3.054  13.932
 1964DOPC   D2A22830   8.789   2.914  13.612
 1964DOPC   C3A22831   8.809   2.424  13.642
 1964DOPC   C4A22832   9.019   2.164  13.342
 1964DOPC   C1B22833   8.259   3.184  13.622
 1964DOPC   D2B22834   8.159   3.394  13.212
 1964DOPC   C3B22835   8.459   3.474  12.932
 1964DOPC   C4B22836   8.729   3.444  12.612
 1965DOPC   NC322837  17.119   4.004  15.312
 1965DOPC   PO422838  16.829   4.374  15.302
 1965DOPC   GL122839  16.779   4.624  14.942
 1965DOPC   GL222840  16.969   4.834  14.802
 1965DOPC   C1A22841  16.449   4.664  14.542
 1965DOPC   D2A22842  16.469   4.814  14.212
 1965DOPC   C3A22843  16.689   4.554  13.982
 1965DOPC   C4A22844  17.029   4.784  13.712
 1965DOPC   C1B22845  17.039   4.564  14.422
 1965DOPC   D2B22846  16.949   4.114  14.322
 1965DOPC   C3B22847  17.199   3.804  13.982
 1965DOPC   C4B22848  17.189   3.414  13.782
 1966DOPC   NC322849   8.149  11.804  14.692
 1966DOPC   PO422850   7.709  11.544  14.782
 1966DOPC   GL122851   7.489  11.464  14.312
 1966DOPC   GL222852   7.699  11.314  14.192
 1966DOPC   C1A22853   7.529  11.754  13.862
 1966DOPC   D2A22854   7.269  11.744  13.462
 1966DOPC   C3A22855   7.229  11.454  13.172
 1966DOPC   C4A22856   7.449  11.294  12.842
 1966DOPC   C1B22857   8.029  11.454  14.132
 1966DOPC   D2B22858   8.459  11.224  14.022
 1966DOPC   C3B22859   8.659  11.154  13.632
 1966DOPC   C4B22860   9.009  11.264  13.452
 1967DOPC   NC322861   4.949  24.371  11.362
 1967DOPC   PO422862   5.029  23.921  11.552
 1967DOPC   GL122863   4.759  23.721  11.922
 1967DOPC   GL222864   4.439  23.761  11.902
 1967DOPC   C1A22865   4.609  23.421  12.382
 1967DOPC   D2A22866   4.569  23.081  12.542
 1967DOPC   C3A22867   4.169  23.001  12.742
 1967DOPC   C4A22868   4.049  23.001  13.192
 1967DOPC   C1B22869   4.439  23.891  12.402
 1967DOPC   D2B22870   4.059  23.961  12.702
 1967DOPC   C3B22871   4.029  23.891  13.132
 1967DOPC   C4B22872   4.159  23.911  13.522
 1968DOPC   NC322873   9.849   9.084  10.592
 1968DOPC   PO422874   9.809   9.584  10.812
 1968DOPC   GL122875   9.879   9.664  11.222
 1968DOPC   GL222876   9.589   9.764  11.382
 1968DOPC   C1A22877  10.109   9.604  11.542
 1968DOPC   D2A22878  10.239   9.654  11.942
 1968DOPC   C3A22879   9.929   9.814  12.172
 1968DOPC   C4A22880  10.079   9.944  12.612
 1968DOPC   C1B22881   9.269   9.864  11.642
 1968DOPC   D2B22882   9.069  10.014  11.972
 1968DOPC   C3B22883   9.289  10.274  12.152
 1968DOPC   C4B22884   9.619  10.284  12.352
 1969DOPC   NC322885   0.869  18.794  11.312
 1969DOPC   PO422886   1.139  19.034  11.552
 1969DOPC   GL122887   1.069  19.154  12.042
 1969DOPC   GL222888   1.369  19.224  12.112
 1969DOPC   C1A22889   1.009  19.224  12.482
 1969DOPC   D2A22890   1.109  19.424  12.962
 1969DOPC   C3A22891   1.049  19.364  13.302
 1969DOPC   C4A22892   1.259  19.314  13.692
 1969DOPC   C1B22893   1.569  19.314  12.472
 1969DOPC   D2B22894   1.619  19.224  12.962
 1969DOPC   C3B22895   1.569  19.534  13.232
 1969DOPC   C4B22896   1.609  19.684  13.602
 1970DOPC   NC322897  10.879   5.004  14.812
 1970DOPC   PO422898  10.629   4.544  14.612
 1970DOPC   GL122899  10.639   4.354  14.142
 1970DOPC   GL222900  10.419   4.624  13.972
 1970DOPC   C1A22901  10.789   4.354  13.632
 1970DOPC   D2A22902  10.739   4.434  13.152
 1970DOPC   C3A22903  10.779   4.124  12.852
 1970DOPC   C4A22904  10.579   3.964  12.452
 1970DOPC   C1B22905  10.089   4.604  13.762
 1970DOPC   D2B22906   9.629   4.634  13.872
 1970DOPC   C3B22907   9.339   4.884  13.622
 1970DOPC   C4B22908   9.199   5.254  13.402
 1971DOPC   NC322909  11.719   1.394  14.432
 1971DOPC   PO422910  12.109   1.424  14.412
 1971DOPC   GL122911  12.079   1.254  13.912
 1971DOPC   GL222912  12.179   0.934  13.812
 1971DOPC   C1A22913  11.929   1.354  13.512
 1971DOPC   D2A22914  11.879   1.444  13.082
 1971DOPC   C3A22915  11.979   1.744  12.732
 1971DOPC   C4A22916  11.739   2.024  12.522
 1971DOPC   C1B22917  12.259   0.974  13.382
 1971DOPC   D2B22918  12.169   0.614  13.092
 1971DOPC   C3B22919  12.059   0.194  12.902
 1971DOPC   C4B22920  11.789   0.074  12.742
 1972DOPC   NC322921   5.729  19.314  11.652
 1972DOPC   PO422922   6.069  19.134  11.612
 1972DOPC   GL122923   6.139  19.404  11.982
 1972DOPC   GL222924   5.839  19.544  12.062
 1972DOPC   C1A22925   6.409  19.724  12.042
 1972DOPC   D2A22926   6.459  20.014  12.312
 1972DOPC   C3A22927   6.109  19.854  12.722
 1972DOPC   C4A22928   5.929  19.954  13.132
 1972DOPC   C1B22929   5.899  19.884  12.262
 1972DOPC   D2B22930   5.929  20.244  12.342
 1972DOPC   C3B22931   6.099  20.364  12.762
 1972DOPC   C4B22932   6.349  20.324  13.162
 1973DOPC   NC322933  21.609   3.514  11.672
 1973DOPC   PO422934  21.979   3.254  11.752
 1973DOPC   GL122935  22.079   3.104  12.212
 1973DOPC   GL222936  21.919   2.814  12.232
 1973DOPC   C1A22937  22.039   3.014  12.652
 1973DOPC   D2A22938  22.369   3.064  12.982
 1973DOPC   C3A22939  22.509   3.424  13.162
 1973DOPC   C4A22940  22.389   3.824  13.002
 1973DOPC   C1B22941  21.849   2.524  12.602
 1973DOPC   D2B22942  21.619   2.564  12.942
 1973DOPC   C3B22943  21.959   2.714  13.232
 1973DOPC   C4B22944  22.249   3.014  13.432
 1974DOPC   NC322945   9.279  25.661  15.232
 1974DOPC   PO422946   9.539  25.371  15.182
 1974DOPC   GL122947   9.279  25.461  14.782
 1974DOPC   GL222948   9.429  25.251  14.592
 1974DOPC   C1A22949   9.079  25.611  14.422
 1974DOPC   D2A22950   9.019  25.661  13.902
 1974DOPC   C3A22951   8.689  25.791  13.612
 1974DOPC   C4A22952   8.449  25.791  13.282
 1974DOPC   C1B22953   9.329  25.191  14.102
 1974DOPC   D2B22954   9.399  25.351  13.652
 1974DOPC   C3B22955   9.069  25.441  13.382
 1974DOPC   C4B22956   8.649  25.371  13.362
 1975DOPC   NC322957  21.509  23.591  12.082
 1975DOPC   PO422958  21.739  23.871  12.242
 1975DOPC   GL122959  21.789  23.921  12.782
 1975DOPC   GL222960  21.999  24.211  12.882
 1975DOPC   C1A22961  21.619  24.001  13.162
 1975DOPC   D2A22962  21.499  24.151  13.622
 1975DOPC   C3A22963  21.509  24.241  13.972
 1975DOPC   C4A22964  21.719  24.631  14.242
 1975DOPC   C1B22965  22.099  24.091  13.242
 1975DOPC   D2B22966  22.059  24.231  13.662
 1975DOPC   C3B22967  22.439  24.461  13.842
 1975DOPC   C4B22968  22.779  24.701  13.842
 1976DOPC   NC322969   2.159  19.494  11.752
 1976DOPC   PO422970   2.319  19.064  11.782
 1976DOPC   GL122971   2.089  18.954  12.162
 1976DOPC   GL222972   1.779  18.944  12.242
 1976DOPC   C1A22973   2.199  18.634  12.482
 1976DOPC   D2A22974   2.409  18.454  12.812
 1976DOPC   C3A22975   2.559  18.594  13.162
 1976DOPC   C4A22976   2.899  18.914  13.342
 1976DOPC   C1B22977   1.429  18.794  12.422
 1976DOPC   D2B22978   1.289  18.864  12.732
 1976DOPC   C3B22979   1.059  18.914  13.042
 1976DOPC   C4B22980   1.159  18.774  13.562
 1977DOPC   NC322981  10.519  22.921  15.332
 1977DOPC   PO422982  10.119  22.651  15.222
 1977DOPC   GL122983  10.079  22.441  14.732
 1977DOPC   GL222984   9.849  22.511  14.612
 1977DOPC   C1A22985  10.209  22.431  14.362
 1977DOPC   D2A22986  10.329  22.471  13.982
 1977DOPC   C3A22987  10.689  22.441  13.772
 1977DOPC   C4A22988  10.989  22.401  13.362
 1977DOPC   C1B22989   9.909  22.901  14.372
 1977DOPC   D2B22990   9.739  23.071  14.042
 1977DOPC   C3B22991   9.869  23.431  13.852
 1977DOPC   C4B22992  10.029  23.501  13.532
 1978DOPC   NC322993  15.539  19.364  11.822
 1978DOPC   PO422994  15.799  18.984  11.702
 1978DOPC   GL122995  15.769  19.054  12.202
 1978DOPC   GL222996  15.569  19.364  12.312
 1978DOPC   C1A22997  15.959  19.084  12.592
 1978DOPC   D2A22998  15.889  19.254  13.032
 1978DOPC   C3A22999  16.209  19.294  13.332
 1978DOPC   C4A23000  16.409  19.134  13.702
 1978DOPC   C1B23001  15.419  18.934  12.472
 1978DOPC   D2B23002  15.029  18.714  12.672
 1978DOPC   C3B23003  15.079  18.374  13.052
 1978DOPC   C4B23004  15.059  18.104  13.532
 1979DOPC   NC323005  22.439   3.844  11.892
 1979DOPC   PO423006  22.229   4.084  12.032
 1979DOPC   GL123007  22.279   4.214  12.392
 1979DOPC   GL223008  22.449   3.934  12.492
 1979DOPC   C1A23009  22.349   4.424  12.772
 1979DOPC   D2A23010  22.329   4.284  13.292
 1979DOPC   C3A23011  22.049   4.514  13.552
 1979DOPC   C4A23012  22.049   4.824  13.822
 1979DOPC   C1B23013  22.819   3.834  12.622
 1979DOPC   D2B23014  23.019   3.634  12.882
 1979DOPC   C3B23015  23.259   3.304  12.752
 1979DOPC   C4B23016  23.519   3.004  12.582
 1980DOPC   NC323017   5.799   3.584  15.142
 1980DOPC   PO423018   6.099   3.794  14.862
 1980DOPC   GL123019   5.799   3.754  14.502
 1980DOPC   GL223020   5.559   3.464  14.442
 1980DOPC   C1A23021   5.749   3.764  14.032
 1980DOPC   D2A23022   5.529   3.694  13.602
 1980DOPC   C3A23023   5.739   3.594  13.222
 1980DOPC   C4A23024   5.609   3.674  12.842
 1980DOPC   C1B23025   5.339   3.444  14.042
 1980DOPC   D2B23026   4.799   3.414  14.072
 1980DOPC   C3B23027   4.519   3.624  13.682
 1980DOPC   C4B23028   4.369   3.834  13.322
 1981DOPC   NC323029  12.179   6.814  14.192
 1981DOPC   PO423030  12.009   6.474  14.392
 1981DOPC   GL123031  11.999   6.294  13.972
 1981DOPC   GL223032  11.989   6.494  13.702
 1981DOPC   C1A23033  11.789   6.004  13.622
 1981DOPC   D2A23034  11.709   5.524  13.752
 1981DOPC   C3A23035  11.509   5.304  13.452
 1981DOPC   C4A23036  11.229   5.164  13.192
 1981DOPC   C1B23037  12.049   6.434  13.292
 1981DOPC   D2B23038  12.019   6.324  12.872
 1981DOPC   C3B23039  11.819   6.434  12.612
 1981DOPC   C4B23040  11.829   6.714  12.242
 1982DOPC   NC323041  11.069  20.574  14.972
 1982DOPC   PO423042  11.369  20.304  15.052
 1982DOPC   GL123043  11.229  20.224  14.642
 1982DOPC   GL223044  11.109  20.474  14.502
 1982DOPC   C1A23045  10.949  19.944  14.452
 1982DOPC   D2A23046  10.599  20.264  14.292
 1982DOPC   C3A23047  10.559  20.364  13.922
 1982DOPC   C4A23048  10.449  20.304  13.472
 1982DOPC   C1B23049  11.029  20.444  14.102
 1982DOPC   D2B23050  11.209  20.314  13.702
 1982DOPC   C3B23051  11.009  20.114  13.292
 1982DOPC   C4B23052  10.759  19.854  13.162
 1983DOPC   NC323053  20.149  18.084  12.502
 1983DOPC   PO423054  20.099  17.654  12.232
 1983DOPC   GL123055  19.809  17.624  12.592
 1983DOPC   GL223056  19.949  17.574  12.822
 1983DOPC   C1A23057  19.459  17.314  12.792
 1983DOPC   D2A23058  19.359  16.914  13.162
 1983DOPC   C3A23059  19.019  16.914  13.362
 1983DOPC   C4A23060  18.829  17.024  13.792
 1983DOPC   C1B23061  19.809  17.904  13.082
 1983DOPC   D2B23062  19.819  18.014  13.512
 1983DOPC   C3B23063  20.189  18.184  13.592
 1983DOPC   C4B23064  20.539  18.174  13.852
 1984DOPC   NC323065   7.319  22.981  15.612
 1984DOPC   PO423066   7.639  22.911  15.352
 1984DOPC   GL123067   7.499  22.961  14.922
 1984DOPC   GL223068   7.309  22.881  14.672
 1984DOPC   C1A23069   7.769  23.041  14.562
 1984DOPC   D2A23070   8.069  22.941  14.302
 1984DOPC   C3A23071   8.039  22.621  14.052
 1984DOPC   C4A23072   8.169  22.291  13.822
 1984DOPC   C1B23073   7.639  22.621  14.392
 1984DOPC   D2B23074   7.649  22.341  14.022
 1984DOPC   C3B23075   7.539  22.461  13.612
 1984DOPC   C4B23076   7.129  22.541  13.352
 1985DOPC   NC323077  12.159  12.964  14.042
 1985DOPC   PO423078  12.599  13.064  13.912
 1985DOPC   GL123079  12.469  13.214  13.512
 1985DOPC   GL223080  12.639  12.954  13.332
 1985DOPC   C1A23081  12.299  13.284  13.202
 1985DOPC   D2A23082  12.189  13.644  13.182
 1985DOPC   C3A23083  12.339  13.934  13.492
 1985DOPC   C4A23084  12.359  14.354  13.582
 1985DOPC   C1B23085  12.729  13.014  12.842
 1985DOPC   D2B23086  12.559  13.224  12.462
 1985DOPC   C3B23087  12.749  13.604  12.282
 1985DOPC   C4B23088  13.039  13.864  12.052
 1986DOPC   NC323089  12.969   5.584  14.322
 1986DOPC   PO423090  13.449   5.514  14.302
 1986DOPC   GL123091  13.469   5.804  14.012
 1986DOPC   GL223092  13.209   5.704  13.792
 1986DOPC   C1A23093  13.529   6.084  13.662
 1986DOPC   D2A23094  13.259   6.394  13.452
 1986DOPC   C3A23095  12.879   6.364  13.252
 1986DOPC   C4A23096  12.509   6.354  13.112
 1986DOPC   C1B23097  13.189   5.844  13.352
 1986DOPC   D2B23098  13.339   5.704  12.802
 1986DOPC   C3B23099  13.509   5.984  12.582
 1986DOPC   C4B23100  13.659   6.194  12.242
 1987DOPC   NC323101  12.719   1.154  10.842
 1987DOPC   PO423102  13.019   0.894  10.942
 1987DOPC   GL123103  12.979   0.864  11.392
 1987DOPC   GL223104  12.789   1.114  11.432
 1987DOPC   C1A23105  13.009   0.944  11.942
 1987DOPC   D2A23106  13.049   1.084  12.432
 1987DOPC   C3A23107  13.499   0.934  12.692
 1987DOPC   C4A23108  13.659   1.144  13.132
 1987DOPC   C1B23109  12.649   1.274  11.772
 1987DOPC   D2B23110  12.599   1.194  12.242
 1987DOPC   C3B23111  12.769   1.454  12.592
 1987DOPC   C4B23112  13.059   1.284  12.852
 1988DOPC   NC323113  22.069  12.824  15.972
 1988DOPC   PO423114  21.979  13.284  15.692
 1988DOPC   GL123115  22.169  13.424  15.372
 1988DOPC   GL223116  22.129  13.714  15.332
 1988DOPC   C1A23117  22.219  13.474  14.912
 1988DOPC   D2A23118  21.979  13.604  14.632
 1988DOPC   C3A23119  21.479  13.524  14.392
 1988DOPC   C4A23120  21.389  13.404  14.042
 1988DOPC   C1B23121  22.429  13.964  15.002
 1988DOPC   D2B23122  22.499  13.854  14.642
 1988DOPC   C3B23123  22.259  13.674  14.272
 1988DOPC   C4B23124  21.909  13.904  14.022
 1989DOPC   NC323125  10.499  25.211  11.292
 1989DOPC   PO423126  10.409  24.841  11.342
 1989DOPC   GL123127  10.569  24.981  11.742
 1989DOPC   GL223128  10.449  25.261  11.792
 1989DOPC   C1A23129  10.749  25.271  12.192
 1989DOPC   D2A23130  10.749  25.221  12.712
 1989DOPC   C3A23131  11.039  25.491  12.902
 1989DOPC   C4A23132  11.269  25.931  12.792
 1989DOPC   C1B23133  10.069  25.031  12.072
 1989DOPC   D2B23134   9.799  25.161  12.392
 1989DOPC   C3B23135   9.849  25.301  12.762
 1989DOPC   C4B23136   9.549  25.461  13.112
 1990DOPC   NC323137   9.099   0.474  11.112
 1990DOPC   PO423138   8.599   0.414  11.132
 1990DOPC   GL123139   8.389   0.354  11.512
 1990DOPC   GL223140   8.449   0.454  11.762
 1990DOPC   C1A23141   7.969   0.624  11.792
 1990DOPC   D2A23142   7.739   0.664  12.212
 1990DOPC   C3A23143   8.099   0.874  12.452
 1990DOPC   C4A23144   8.399   0.904  12.712
 1990DOPC   C1B23145   8.349   0.244  12.142
 1990DOPC   D2B23146   8.239   0.334  12.602
 1990DOPC   C3B23147   7.979   0.084  12.942
 1990DOPC   C4B23148   7.619  -0.036  13.152
 1991DOPC   NC323149   8.649  23.551  15.292
 1991DOPC   PO423150   8.789  23.971  15.162
 1991DOPC   GL123151   8.679  23.831  14.792
 1991DOPC   GL223152   8.749  23.491  14.752
 1991DOPC   C1A23153   8.329  23.741  14.562
 1991DOPC   D2A23154   8.399  23.451  14.192
 1991DOPC   C3A23155   8.389  23.401  13.802
 1991DOPC   C4A23156   8.319  23.161  13.402
 1991DOPC   C1B23157   8.839  23.571  14.282
 1991DOPC   D2B23158   9.049  23.631  13.942
 1991DOPC   C3B23159   8.789  23.521  13.532
 1991DOPC   C4B23160   8.359  23.701  13.392
 1992DOPC   NC323161   4.869   8.584  11.492
 1992DOPC   PO423162   5.299   8.504  11.482
 1992DOPC   GL123163   5.309   8.654  11.832
 1992DOPC   GL223164   4.959   8.564  11.972
 1992DOPC   C1A23165   5.439   8.464  12.262
 1992DOPC   D2A23166   5.519   8.284  12.692
 1992DOPC   C3A23167   5.779   8.284  13.022
 1992DOPC   C4A23168   5.809   8.214  13.442
 1992DOPC   C1B23169   5.179   8.934  12.192
 1992DOPC   D2B23170   5.189   9.374  12.432
 1992DOPC   C3B23171   4.859   9.664  12.592
 1992DOPC   C4B23172   4.439   9.754  12.612
 1993DOPC   NC323173   3.829  14.854  15.642
 1993DOPC   PO423174   3.569  14.644  15.492
 1993DOPC   GL123175   3.679  14.794  15.142
 1993DOPC   GL223176   4.019  14.894  15.062
 1993DOPC   C1A23177   3.679  15.074  14.752
 1993DOPC   D2A23178   4.049  15.184  14.622
 1993DOPC   C3A23179   4.129  15.554  14.402
 1993DOPC   C4A23180   3.809  15.874  14.292
 1993DOPC   C1B23181   3.999  15.344  15.122
 1993DOPC   D2B23182   4.269  15.714  14.942
 1993DOPC   C3B23183   4.039  15.984  14.722
 1993DOPC   C4B23184   4.069  16.314  14.442
 1994DOPC   NC323185  15.229   5.204  14.682
 1994DOPC   PO423186  14.919   4.954  14.992
 1994DOPC   GL123187  14.969   4.854  14.492
 1994DOPC   GL223188  14.929   4.544  14.352
 1994DOPC   C1A23189  14.789   5.064  14.172
 1994DOPC   D2A23190  14.569   5.384  13.962
 1994DOPC   C3A23191  14.799   5.544  13.542
 1994DOPC   C4A23192  15.259   5.484  13.322
 1994DOPC   C1B23193  15.379   4.454  14.352
 1994DOPC   D2B23194  15.719   4.244  14.142
 1994DOPC   C3B23195  15.549   3.944  13.852
 1994DOPC   C4B23196  15.659   3.704  13.432
 1995DOPC   NC323197   3.099  16.274  10.952
 1995DOPC   PO423198   3.299  16.094  11.432
 1995DOPC   GL123199   3.419  15.814  11.872
 1995DOPC   GL223200   3.679  15.664  11.962
 1995DOPC   C1A23201   3.259  15.594  12.282
 1995DOPC   D2A23202   3.139  15.464  12.722
 1995DOPC   C3A23203   3.449  15.704  13.052
 1995DOPC   C4A23204   3.799  15.844  13.282
 1995DOPC   C1B23205   3.719  15.994  12.292
 1995DOPC   D2B23206   3.819  16.294  12.722
 1995DOPC   C3B23207   3.589  16.364  13.042
 1995DOPC   C4B23208   3.689  16.324  13.442
 1996DOPC   NC323209  12.829  11.404  14.442
 1996DOPC   PO423210  12.959  11.704  14.052
 1996DOPC   GL123211  13.159  11.644  13.612
 1996DOPC   GL223212  13.419  11.754  13.522
 1996DOPC   C1A23213  13.149  11.464  13.202
 1996DOPC   D2A23214  13.189  11.174  12.962
 1996DOPC   C3A23215  12.969  11.034  12.622
 1996DOPC   C4A23216  12.779  10.924  12.242
 1996DOPC   C1B23217  13.649  11.544  13.272
 1996DOPC   D2B23218  14.119  11.484  13.072
 1996DOPC   C3B23219  14.059  11.624  12.652
 1996DOPC   C4B23220  13.699  11.744  12.442
 1997DOPC   NC323221  14.839  13.824  10.282
 1997DOPC   PO423222  14.429  13.814  10.272
 1997DOPC   GL123223  14.469  13.624  10.722
 1997DOPC   GL223224  14.419  13.854  10.892
 1997DOPC   C1A23225  14.579  13.184  10.862
 1997DOPC   D2A23226  14.459  13.014  11.382
 1997DOPC   C3A23227  14.709  13.134  11.762
 1997DOPC   C4A23228  14.919  13.414  11.972
 1997DOPC   C1B23229  14.259  13.944  11.282
 1997DOPC   D2B23230  14.049  14.274  11.462
 1997DOPC   C3B23231  13.779  14.324  11.802
 1997DOPC   C4B23232  13.819  14.404  12.312
 1998DOPC   NC323233   6.919  25.291  16.002
 1998DOPC   PO423234   6.849  25.301  15.562
 1998DOPC   GL123235   6.649  25.101  15.182
 1998DOPC   GL223236   6.389  25.261  14.852
 1998DOPC   C1A23237   6.729  24.861  14.732
 1998DOPC   D2A23238   7.119  24.711  14.542
 1998DOPC   C3A23239   7.259  24.551  14.132
 1998DOPC   C4A23240   7.669  24.311  13.962
 1998DOPC   C1B23241   6.649  25.451  14.512
 1998DOPC   D2B23242   6.989  25.641  14.352
 1998DOPC   C3B23243   7.099  25.611  13.892
 1998DOPC   C4B23244   7.419  25.741  13.592
 1999DOPC   NC323245  17.339  21.881  11.812
 1999DOPC   PO423246  17.589  22.151  11.542
 1999DOPC   GL123247  17.729  22.061  12.032
 1999DOPC   GL223248  17.539  21.901  12.272
 1999DOPC   C1A23249  18.029  22.151  12.342
 1999DOPC   D2A23250  18.259  22.001  12.642
 1999DOPC   C3A23251  18.519  21.691  12.742
 1999DOPC   C4A23252  18.789  21.441  12.952
 1999DOPC   C1B23253  17.489  21.581  12.572
 1999DOPC   D2B23254  17.319  21.371  12.882
 1999DOPC   C3B23255  17.379  21.441  13.272
 1999DOPC   C4B23256  17.439  21.314  13.662
 2000DOPC   NC323257  15.129  14.974  15.042
 2000DOPC   PO423258  15.219  15.314  14.992
 2000DOPC   GL123259  15.029  15.474  14.622
 2000DOPC   GL223260  14.689  15.624  14.562
 2000DOPC   C1A23261  15.119  15.464  14.222
 2000DOPC   D2A23262  15.169  15.544  13.762
 2000DOPC   C3A23263  15.439  15.924  13.642
 2000DOPC   C4A23264  15.879  16.074  13.602
 2000DOPC   C1B23265  14.729  15.744  14.152
 2000DOPC   D2B23266  14.459  16.044  13.912
 2000DOPC   C3B23267  14.529  16.254  13.602
 2000DOPC   C4B23268  14.579  16.134  13.152
 2001DOPC   NC323269   4.669   9.664  15.542
 2001DOPC   PO423270   4.519   9.274  15.512
 2001DOPC   GL123271   4.499   9.484  15.062
 2001DOPC   GL223272   4.309   9.214  14.852
 2001DOPC   C1A23273   4.739   9.404  14.672
 2001DOPC   D2A23274   5.049   9.624  14.372
 2001DOPC   C3A23275   4.939   9.624  14.002
 2001DOPC   C4A23276   4.539   9.584  13.932
 2001DOPC   C1B23277   4.139   9.194  14.472
 2001DOPC   D2B23278   4.039   9.234  14.072
 2001DOPC   C3B23279   4.259   9.084  13.762
 2001DOPC   C4B23280   4.349   8.944  13.332
 2002DOPC   NC323281  10.269  11.014  10.712
 2002DOPC   PO423282  10.609  10.784  10.752
 2002DOPC   GL123283  10.769  10.734  11.082
 2002DOPC   GL223284  11.079  10.704  10.992
 2002DOPC   C1A23285  10.729  11.024  11.532
 2002DOPC   D2A23286  10.629  11.384  11.922
 2002DOPC   C3A23287  10.709  11.294  12.382
 2002DOPC   C4A23288  11.099  11.074  12.532
 2002DOPC   C1B23289  11.179  10.564  11.472
 2002DOPC   D2B23290  11.289  10.274  11.792
 2002DOPC   C3B23291  11.499   9.964  11.562
 2002DOPC   C4B23292  11.809   9.934  11.242
 2003DOPC   NC323293   8.909   1.264  14.742
 2003DOPC   PO423294   9.009   1.684  14.722
 2003DOPC   GL123295   9.119   1.564  14.282
 2003DOPC   GL223296   9.469   1.394  14.272
 2003DOPC   C1A23297   9.259   1.644  13.862
 2003DOPC   D2A23298   9.369   1.824  13.522
 2003DOPC   C3A23299   9.859   1.794  13.332
 2003DOPC   C4A23300  10.159   1.874  13.542
 2003DOPC   C1B23301   9.399   1.074  13.992
 2003DOPC   D2B23302   9.579   0.834  13.662
 2003DOPC   C3B23303   9.419   0.874  13.282
 2003DOPC   C4B23304   9.229   0.654  12.932
 2004DOPC   NC323305   5.459  21.064  15.842
 2004DOPC   PO423306   5.839  20.814  15.642
 2004DOPC   GL123307   5.989  20.714  15.232
 2004DOPC   GL223308   6.199  20.434  15.142
 2004DOPC   C1A23309   6.259  21.064  14.922
 2004DOPC   D2A23310   6.289  21.114  14.412
 2004DOPC   C3A23311   6.279  21.044  14.022
 2004DOPC   C4A23312   6.319  21.104  13.542
 2004DOPC   C1B23313   6.369  20.614  14.762
 2004DOPC   D2B23314   6.809  20.514  14.622
 2004DOPC   C3B23315   7.009  20.264  14.292
 2004DOPC   C4B23316   7.119  19.824  14.142
 2005DOPC   NC323317  12.369   1.264  14.762
 2005DOPC   PO423318  12.629   1.554  14.352
 2005DOPC   GL123319  12.399   1.694  14.042
 2005DOPC   GL223320  12.439   2.014  13.942
 2005DOPC   C1A23321  12.239   1.724  13.612
 2005DOPC   D2A23322  12.219   1.734  13.162
 2005DOPC   C3A23323  12.509   1.874  12.782
 2005DOPC   C4A23324  12.489   2.154  12.432
 2005DOPC   C1B23325  12.679   2.114  13.622
 2005DOPC   D2B23326  12.609   1.984  13.262
 2005DOPC   C3B23327  12.299   2.274  13.042
 2005DOPC   C4B23328  11.869   2.504  13.152
 2006DOPC   NC323329  22.639   1.334  15.552
 2006DOPC   PO423330  22.189   1.204  15.482
 2006DOPC   GL123331  22.269   1.064  15.022
 2006DOPC   GL223332  22.419   0.744  15.172
 2006DOPC   C1A23333  22.439   0.924  14.672
 2006DOPC   D2A23334  22.809   1.024  14.442
 2006DOPC   C3A23335  23.069   1.484  14.332
 2006DOPC   C4A23336  23.229   1.824  14.122
 2006DOPC   C1B23337  22.859   0.844  15.032
 2006DOPC   D2B23338  23.239   0.784  14.822
 2006DOPC   C3B23339  23.349   0.544  14.432
 2006DOPC   C4B23340  23.509   0.244  14.082
 2007DOPC   NC323341   3.969  22.761  15.152
 2007DOPC   PO423342   4.139  23.111  15.342
 2007DOPC   GL123343   4.099  23.211  14.942
 2007DOPC   GL223344   4.199  22.851  14.682
 2007DOPC   C1A23345   4.109  23.341  14.532
 2007DOPC   D2A23346   4.239  23.081  14.042
 2007DOPC   C3A23347   3.979  23.231  13.752
 2007DOPC   C4A23348   4.029  23.421  13.442
 2007DOPC   C1B23349   3.949  22.871  14.382
 2007DOPC   D2B23350   3.579  22.961  14.052
 2007DOPC   C3B23351   3.249  22.731  14.012
 2007DOPC   C4B23352   2.899  22.821  13.722
 2008DOPC   NC323353  24.879   2.984  15.112
 2008DOPC   PO423354  25.109   2.684  15.392
 2008DOPC   GL123355  25.189   2.544  14.902
 2008DOPC   GL223356  24.949   2.584  14.782
 2008DOPC   C1A23357  25.159   2.214  14.562
 2008DOPC   D2A23358  24.849   1.874  14.552
 2008DOPC   C3A23359  24.539   1.904  14.312
 2008DOPC   C4A23360  24.209   1.814  14.032
 2008DOPC   C1B23361  24.709   2.434  14.382
 2008DOPC   D2B23362  24.289   2.304  14.222
 2008DOPC   C3B23363  24.039   2.524  14.022
 2008DOPC   C4B23364  23.679   2.394  13.722
 2009DOPC   NC323365   9.509   1.824  14.542
 2009DOPC   PO423366   9.889   1.614  14.802
 2009DOPC   GL123367  10.009   1.394  14.442
 2009DOPC   GL223368  10.189   1.064  14.472
 2009DOPC   C1A23369   9.909   1.234  14.082
 2009DOPC   D2A23370   9.649   1.374  13.642
 2009DOPC   C3A23371   9.249   1.334  13.492
 2009DOPC   C4A23372   8.959   1.294  13.312
 2009DOPC   C1B23373  10.289   0.884  14.032
 2009DOPC   D2B23374  10.369   0.774  13.482
 2009DOPC   C3B23375  10.679   0.814  13.172
 2009DOPC   C4B23376  11.059   0.844  12.852
 2010DOPC   NC323377   7.379  19.044  15.132
 2010DOPC   PO423378   7.009  19.314  15.242
 2010DOPC   GL123379   7.259  19.374  14.772
 2010DOPC   GL223380   7.009  19.054  14.712
 2010DOPC   C1A23381   7.349  19.464  14.352
 2010DOPC   D2A23382   7.579  19.594  14.022
 2010DOPC   C3A23383   7.909  19.414  13.632
 2010DOPC   C4A23384   8.119  19.384  13.252
 2010DOPC   C1B23385   6.859  19.404  14.462
 2010DOPC   D2B23386   6.559  19.774  14.282
 2010DOPC   C3B23387   6.809  19.754  13.762
 2010DOPC   C4B23388   6.939  19.854  13.352
 2011DOPC   NC323389  10.389   7.844  14.672
 2011DOPC   PO423390  10.079   8.084  14.452
 2011DOPC   GL123391   9.999   7.964  14.052
 2011DOPC   GL223392   9.749   7.694  14.102
 2011DOPC   C1A23393  10.209   7.914  13.642
 2011DOPC   D2A23394  10.459   7.814  13.272
 2011DOPC   C3A23395  10.669   7.434  13.392
 2011DOPC   C4A23396  10.759   7.094  13.292
 2011DOPC   C1B23397   9.669   7.804  13.672
 2011DOPC   D2B23398   9.789   7.864  13.282
 2011DOPC   C3B23399   9.889   7.604  12.942
 2011DOPC   C4B23400  10.269   7.304  13.012
 2012DOPC   NC323401  20.639  23.191  15.852
 2012DOPC   PO423402  21.119  23.351  15.952
 2012DOPC   GL123403  21.009  23.371  15.502
 2012DOPC   GL223404  21.229  23.321  15.252
 2012DOPC   C1A23405  20.679  23.341  15.212
 2012DOPC   D2A23406  20.419  23.591  15.032
 2012DOPC   C3A23407  20.109  23.381  14.872
 2012DOPC   C4A23408  19.739  23.551  14.642
 2012DOPC   C1B23409  21.359  23.101  14.902
 2012DOPC   D2B23410  21.229  23.061  14.482
 2012DOPC   C3B23411  20.749  22.941  14.382
 2012DOPC   C4B23412  20.429  22.791  14.212
 2013DOPC   NC323413  18.069  15.324  15.722
 2013DOPC   PO423414  18.449  15.424  15.642
 2013DOPC   GL123415  18.329  15.204  15.302
 2013DOPC   GL223416  18.509  15.444  15.092
 2013DOPC   C1A23417  18.159  15.174  14.882
 2013DOPC   D2A23418  18.189  15.284  14.372
 2013DOPC   C3A23419  18.369  15.354  13.942
 2013DOPC   C4A23420  18.419  15.754  13.722
 2013DOPC   C1B23421  18.229  15.704  14.932
 2013DOPC   D2B23422  17.959  16.064  14.722
 2013DOPC   C3B23423  17.909  16.124  14.322
 2013DOPC   C4B23424  17.689  16.254  13.862
 2014DOPC   NC323425  19.719  11.124  14.992
 2014DOPC   PO423426  19.289  10.814  14.982
 2014DOPC   GL123427  19.429  10.934  14.642
 2014DOPC   GL223428  19.229  11.254  14.652
 2014DOPC   C1A23429  19.629  10.894  14.192
 2014DOPC   D2A23430  19.799  10.814  13.772
 2014DOPC   C3A23431  19.689  11.014  13.362
 2014DOPC   C4A23432  19.539  11.394  13.182
 2014DOPC   C1B23433  19.519  11.434  14.312
 2014DOPC   D2B23434  19.399  11.764  14.092
 2014DOPC   C3B23435  19.799  11.984  13.752
 2014DOPC   C4B23436  19.869  12.334  13.482
 2015DOPC   NC323437  23.019  20.254  12.352
 2015DOPC   PO423438  22.759  19.914  12.272
 2015DOPC   GL123439  22.699  19.994  12.702
 2015DOPC   GL223440  22.979  20.184  12.862
 2015DOPC   C1A23441  22.759  19.864  13.162
 2015DOPC   D2A23442  23.139  19.864  13.452
 2015DOPC   C3A23443  23.489  20.154  13.702
 2015DOPC   C4A23444  23.869  20.284  13.812
 2015DOPC   C1B23445  23.189  20.304  13.182
 2015DOPC   D2B23446  22.949  20.314  13.482
 2015DOPC   C3B23447  22.839  20.044  13.822
 2015DOPC   C4B23448  23.209  19.994  14.092
 2016DOPC   NC323449  19.159   9.154  15.062
 2016DOPC   PO423450  18.769   9.274  14.842
 2016DOPC   GL123451  18.909   9.474  14.452
 2016DOPC   GL223452  19.279   9.404  14.502
 2016DOPC   C1A23453  18.999   9.564  14.012
 2016DOPC   D2A23454  19.179   9.824  13.632
 2016DOPC   C3A23455  19.129  10.324  13.582
 2016DOPC   C4A23456  18.839  10.464  13.772
 2016DOPC   C1B23457  19.429   9.364  13.952
 2016DOPC   D2B23458  19.629   9.614  13.612
 2016DOPC   C3B23459  19.929   9.424  13.412
 2016DOPC   C4B23460  20.219   9.274  13.752
 2017DOPC   NC323461  22.269  19.064  15.842
 2017DOPC   PO423462  22.289  19.454  15.862
 2017DOPC   GL123463  22.249  19.274  15.362
 2017DOPC   GL223464  22.399  19.514  15.162
 2017DOPC   C1A23465  22.169  19.074  14.982
 2017DOPC   D2A23466  22.219  19.144  14.612
 2017DOPC   C3A23467  21.919  19.354  14.382
 2017DOPC   C4A23468  21.599  19.234  14.092
 2017DOPC   C1B23469  22.169  19.614  14.762
 2017DOPC   D2B23470  22.129  19.784  14.332
 2017DOPC   C3B23471  22.319  19.874  14.002
 2017DOPC   C4B23472  22.419  20.084  13.582
 2018DOPC   NC323473  24.799  22.681  16.532
 2018DOPC   PO423474  24.449  22.681  16.262
 2018DOPC   GL123475  24.339  22.821  15.842
 2018DOPC   GL223476  24.059  22.731  15.832
 2018DOPC   C1A23477  24.669  22.821  15.492
 2018DOPC   D2A23478  24.719  23.101  15.162
 2018DOPC   C3A23479  24.909  22.941  14.812
 2018DOPC   C4A23480  25.159  23.241  14.682
 2018DOPC   C1B23481  24.199  22.741  15.392
 2018DOPC   D2B23482  24.339  22.811  14.982
 2018DOPC   C3B23483  24.139  22.801  14.612
 2018DOPC   C4B23484  23.779  22.631  14.412
 2019DOPC   NC323485  20.099  22.451  11.702
 2019DOPC   PO423486  19.949  22.101  11.982
 2019DOPC   GL123487  19.969  22.051  12.502
 2019DOPC   GL223488  20.259  22.021  12.692
 2019DOPC   C1A23489  19.849  21.981  12.972
 2019DOPC   D2A23490  19.949  22.171  13.262
 2019DOPC   C3A23491  19.609  22.311  13.512
 2019DOPC   C4A23492  19.259  22.481  13.532
 2019DOPC   C1B23493  20.299  21.821  13.092
 2019DOPC   D2B23494  20.119  21.551  13.312
 2019DOPC   C3B23495  20.339  21.591  13.782
 2019DOPC   C4B23496  20.449  21.541  14.242
 2020DOPC   NC323497   2.669  21.851  15.652
 2020DOPC   PO423498   2.739  22.351  15.642
 2020DOPC   GL123499   2.689  22.481  15.222
 2020DOPC   GL223500   2.879  22.381  15.052
 2020DOPC   C1A23501   2.439  22.761  14.952
 2020DOPC   D2A23502   1.989  22.881  14.922
 2020DOPC   C3A23503   1.979  22.881  14.512
 2020DOPC   C4A23504   1.909  23.071  14.112
 2020DOPC   C1B23505   2.799  22.471  14.672
 2020DOPC   D2B23506   2.419  22.681  14.492
 2020DOPC   C3B23507   2.349  22.531  14.162
 2020DOPC   C4B23508   2.109  22.281  13.942
 2021DOPC   NC323509   8.009   1.984  14.832
 2021DOPC   PO423510   8.399   1.654  14.772
 2021DOPC   GL123511   8.589   1.644  14.472
 2021DOPC   GL223512   8.489   1.914  14.202
 2021DOPC   C1A23513   8.599   1.374  14.132
 2021DOPC   D2A23514   8.399   1.114  13.742
 2021DOPC   C3A23515   7.949   0.944  13.522
 2021DOPC   C4A23516   7.559   0.984  13.592
 2021DOPC   C1B23517   8.279   1.634  13.832
 2021DOPC   D2B23518   8.219   1.464  13.382
 2021DOPC   C3B23519   8.449   1.114  13.232
 2021DOPC   C4B23520   8.769   0.904  13.132
 2022DOPC   NC323521   6.709  13.714  11.002
 2022DOPC   PO423522   6.829  14.114  10.742
 2022DOPC   GL123523   7.079  14.064  11.092
 2022DOPC   GL223524   7.039  13.854  11.362
 2022DOPC   C1A23525   7.099  14.324  11.532
 2022DOPC   D2A23526   7.229  14.334  11.952
 2022DOPC   C3A23527   7.579  14.014  12.132
 2022DOPC   C4A23528   7.789  13.724  12.332
 2022DOPC   C1B23529   7.239  13.844  11.732
 2022DOPC   D2B23530   7.009  13.904  12.132
 2022DOPC   C3B23531   7.219  14.294  12.432
 2022DOPC   C4B23532   7.249  14.594  12.712
 2023DOPC   NC323533   3.419   5.064  15.022
 2023DOPC   PO423534   3.169   4.574  15.042
 2023DOPC   GL123535   3.089   4.754  14.612
 2023DOPC   GL223536   2.929   5.004  14.442
 2023DOPC   C1A23537   3.089   4.534  14.252
 2023DOPC   D2A23538   2.749   4.224  14.322
 2023DOPC   C3A23539   2.519   4.144  14.002
 2023DOPC   C4A23540   2.279   4.274  13.732
 2023DOPC   C1B23541   3.099   5.304  14.232
 2023DOPC   D2B23542   3.339   5.364  13.802
 2023DOPC   C3B23543   3.419   5.744  13.722
 2023DOPC   C4B23544   3.409   6.114  13.512
 2024DOPC   NC323545  10.039  16.804  10.982
 2024DOPC   PO423546   9.519  16.794  10.982
 2024DOPC   GL123547   9.669  16.854  11.432
 2024DOPC   GL223548   9.349  17.104  11.372
 2024DOPC   C1A23549   9.969  16.914  11.752
 2024DOPC   D2A23550  10.129  16.784  12.222
 2024DOPC   C3A23551  10.069  16.764  12.632
 2024DOPC   C4A23552  10.299  16.714  12.982
 2024DOPC   C1B23553   9.429  16.984  11.832
 2024DOPC   D2B23554   9.739  17.144  12.212
 2024DOPC   C3B23555   9.789  17.154  12.662
 2024DOPC   C4B23556   9.869  17.044  13.112
 2025DOPC   NC323557  12.299  15.864  10.972
 2025DOPC   PO423558  12.589  15.704  11.072
 2025DOPC   GL123559  12.469  15.674  11.432
 2025DOPC   GL223560  12.159  15.794  11.442
 2025DOPC   C1A23561  12.449  15.624  11.822
 2025DOPC   D2A23562  12.599  15.814  12.172
 2025DOPC   C3A23563  12.929  16.104  11.982
 2025DOPC   C4A23564  13.329  16.164  12.132
 2025DOPC   C1B23565  12.009  15.364  11.562
 2025DOPC   D2B23566  11.899  14.934  11.662
 2025DOPC   C3B23567  12.039  14.844  12.142
 2025DOPC   C4B23568  12.009  15.134  12.542
 2026DOPC   NC323569  14.629  13.574  14.212
 2026DOPC   PO423570  14.379  13.154  14.162
 2026DOPC   GL123571  14.679  13.074  13.752
 2026DOPC   GL223572  14.719  13.394  13.762
 2026DOPC   C1A23573  15.069  13.024  13.472
 2026DOPC   D2A23574  15.169  13.354  13.132
 2026DOPC   C3A23575  15.559  13.294  12.952
 2026DOPC   C4A23576  15.909  13.204  12.772
 2026DOPC   C1B23577  14.619  13.304  13.332
 2026DOPC   D2B23578  14.509  13.194  12.982
 2026DOPC   C3B23579  14.879  13.194  12.782
 2026DOPC   C4B23580  14.789  13.054  12.282
 2027DOPC   NC323581  11.839  25.101  15.592
 2027DOPC   PO423582  11.469  24.951  15.502
 2027DOPC   GL123583  11.339  24.951  15.092
 2027DOPC   GL223584  11.179  24.651  14.982
 2027DOPC   C1A23585  11.329  24.981  14.642
 2027DOPC   D2A23586  11.359  24.971  14.182
 2027DOPC   C3A23587  11.129  25.161  13.742
 2027DOPC   C4A23588  11.229  25.171  13.252
 2027DOPC   C1B23589  11.379  24.441  14.642
 2027DOPC   D2B23590  11.329  24.261  14.122
 2027DOPC   C3B23591  11.649  24.441  13.782
 2027DOPC   C4B23592  11.989  24.691  13.542
 2028DOPC   NC323593  13.979  12.834  14.042
 2028DOPC   PO423594  13.649  12.894  14.182
 2028DOPC   GL123595  13.589  12.864  13.752
 2028DOPC   GL223596  13.969  12.794  13.572
 2028DOPC   C1A23597  13.599  12.884  13.242
 2028DOPC   D2A23598  13.749  12.784  12.842
 2028DOPC   C3A23599  13.769  13.114  12.462
 2028DOPC   C4A23600  13.829  13.274  12.012
 2028DOPC   C1B23601  14.119  13.144  13.242
 2028DOPC   D2B23602  14.059  13.354  12.852
 2028DOPC   C3B23603  14.409  13.524  12.552
 2028DOPC   C4B23604  14.759  13.554  12.472
 2029DOPC   NC323605   2.459  25.401  15.242
 2029DOPC   PO423606   1.989  25.441  15.412
 2029DOPC   GL123607   2.079  25.301  15.002
 2029DOPC   GL223608   2.219  25.001  14.922
 2029DOPC   C1A23609   1.899  25.341  14.602
 2029DOPC   D2A23610   2.209  25.461  14.292
 2029DOPC   C3A23611   2.219  25.941  14.222
 2029DOPC   C4A23612   2.129  26.251  13.992
 2029DOPC   C1B23613   2.189  24.981  14.522
 2029DOPC   D2B23614   2.089  24.871  14.052
 2029DOPC   C3B23615   2.149  24.351  14.052
 2029DOPC   C4B23616   2.049  24.171  13.692
 2030DOPC   NC323617  12.209  17.314  10.722
 2030DOPC   PO423618  12.379  17.674  10.892
 2030DOPC   GL123619  12.079  17.684  11.252
 2030DOPC   GL223620  12.349  17.704  11.522
 2030DOPC   C1A23621  11.819  17.384  11.412
 2030DOPC   D2A23622  11.999  17.164  11.772
 2030DOPC   C3A23623  11.829  17.154  12.202
 2030DOPC   C4A23624  11.809  16.944  12.602
 2030DOPC   C1B23625  12.509  17.334  11.602
 2030DOPC   D2B23626  12.499  16.884  11.622
 2030DOPC   C3B23627  12.869  16.854  11.912
 2030DOPC   C4B23628  13.039  16.564  12.182
 2031DOPC   NC323629   7.989  13.354  14.832
 2031DOPC   PO423630   8.269  13.334  14.442
 2031DOPC   GL123631   8.149  13.324  13.972
 2031DOPC   GL223632   7.899  13.304  13.992
 2031DOPC   C1A23633   8.049  13.534  13.572
 2031DOPC   D2A23634   8.239  13.314  13.222
 2031DOPC   C3A23635   8.409  13.644  12.932
 2031DOPC   C4A23636   8.559  13.874  12.552
 2031DOPC   C1B23637   8.059  12.964  13.642
 2031DOPC   D2B23638   8.059  12.744  13.272
 2031DOPC   C3B23639   7.749  12.724  12.992
 2031DOPC   C4B23640   7.459  12.644  12.762
 2032DOPC   NC323641   8.159  14.704  15.082
 2032DOPC   PO423642   8.339  14.284  14.832
 2032DOPC   GL123643   8.479  14.194  14.422
 2032DOPC   GL223644   8.799  14.324  14.432
 2032DOPC   C1A23645   8.519  14.244  14.002
 2032DOPC   D2A23646   8.639  14.414  13.592
 2032DOPC   C3A23647   8.259  14.604  13.262
 2032DOPC   C4A23648   7.869  14.434  13.422
 2032DOPC   C1B23649   9.059  14.304  14.042
 2032DOPC   D2B23650   9.099  14.564  13.692
 2032DOPC   C3B23651   9.019  14.464  13.222
 2032DOPC   C4B23652   8.799  14.784  13.142
 2033DOPC   NC323653   8.119  25.931  15.242
 2033DOPC   PO423654   8.659  25.881  15.092
 2033DOPC   GL123655   8.629  25.591  14.742
 2033DOPC   GL223656   8.509  25.251  14.732
 2033DOPC   C1A23657   8.459  25.591  14.242
 2033DOPC   D2A23658   8.159  25.241  14.102
 2033DOPC   C3A23659   8.079  24.971  13.662
 2033DOPC   C4A23660   8.589  24.901  13.422
 2033DOPC   C1B23661   8.469  24.861  14.332
 2033DOPC   D2B23662   8.499  24.821  13.952
 2033DOPC   C3B23663   8.159  24.471  13.682
 2033DOPC   C4B23664   7.739  24.461  13.432
 2034DOPC   NC323665   5.589  13.724  15.692
 2034DOPC   PO423666   5.679  13.764  15.302
 2034DOPC   GL123667   5.639  13.764  14.862
 2034DOPC   GL223668   5.789  13.574  14.622
 2034DOPC   C1A23669   5.249  13.604  14.672
 2034DOPC   D2A23670   5.139  13.314  14.332
 2034DOPC   C3A23671   5.459  12.994  14.252
 2034DOPC   C4A23672   5.399  12.834  13.852
 2034DOPC   C1B23673   5.589  13.574  14.282
 2034DOPC   D2B23674   5.629  13.684  13.952
 2034DOPC   C3B23675   5.919  14.094  13.912
 2034DOPC   C4B23676   5.839  14.354  13.612
 2035DOPC   NC323677   9.549   6.644  10.662
 2035DOPC   PO423678   9.909   6.734  10.892
 2035DOPC   GL123679  10.029   6.774  11.342
 2035DOPC   GL223680   9.789   6.924  11.622
 2035DOPC   C1A23681  10.179   6.514  11.772
 2035DOPC   D2A23682  10.409   6.484  12.032
 2035DOPC   C3A23683  10.389   6.194  12.392
 2035DOPC   C4A23684  10.189   5.924  12.612
 2035DOPC   C1B23685   9.879   6.834  12.012
 2035DOPC   D2B23686   9.999   6.584  12.322
 2035DOPC   C3B23687  10.469   6.754  12.602
 2035DOPC   C4B23688  10.659   6.684  13.042
 2036DOPC   NC323689  25.986   6.644  15.382
 2036DOPC   PO423690  26.076   6.724  15.022
 2036DOPC   GL123691  25.996   6.764  14.682
 2036DOPC   GL223692  26.206   6.684  14.352
 2036DOPC   C1A23693  25.656   6.704  14.472
 2036DOPC   D2A23694  25.249   6.964  14.452
 2036DOPC   C3A23695  24.879   6.784  14.212
 2036DOPC   C4A23696  24.749   6.754  13.792
 2036DOPC   C1B23697  25.936   6.304  14.402
 2036DOPC   D2B23698  25.619   6.114  14.682
 2036DOPC   C3B23699  25.309   6.374  14.612
 2036DOPC   C4B23700  24.919   6.474  14.682
 2037DOPC   NC323701   3.589  22.151  15.592
 2037DOPC   PO423702   3.799  22.331  15.272
 2037DOPC   GL123703   3.849  22.191  14.902
 2037DOPC   GL223704   3.719  22.461  14.692
 2037DOPC   C1A23705   4.109  21.991  14.512
 2037DOPC   D2A23706   4.059  22.081  14.102
 2037DOPC   C3A23707   4.409  22.041  13.882
 2037DOPC   C4A23708   4.839  21.821  13.882
 2037DOPC   C1B23709   3.709  22.471  14.282
 2037DOPC   D2B23710   3.859  22.511  13.782
 2037DOPC   C3B23711   3.679  22.821  13.562
 2037DOPC   C4B23712   3.359  23.091  13.502
 2038DOPC   NC323713  14.349  13.894  14.642
 2038DOPC   PO423714  14.449  14.144  14.312
 2038DOPC   GL123715  14.429  14.404  14.012
 2038DOPC   GL223716  14.509  14.654  14.242
 2038DOPC   C1A23717  14.489  14.424  13.612
 2038DOPC   D2A23718  14.699  14.314  13.152
 2038DOPC   C3A23719  14.519  14.514  12.782
 2038DOPC   C4A23720  14.399  14.394  12.412
 2038DOPC   C1B23721  14.489  14.874  13.852
 2038DOPC   D2B23722  14.359  15.154  13.662
 2038DOPC   C3B23723  14.329  15.294  13.232
 2038DOPC   C4B23724  14.669  15.664  13.102
 2039DOPC   NC323725  10.239  24.581  14.972
 2039DOPC   PO423726  10.139  24.131  15.072
 2039DOPC   GL123727   9.879  24.201  14.692
 2039DOPC   GL223728   9.929  24.421  14.532
 2039DOPC   C1A23729   9.519  23.991  14.462
 2039DOPC   D2A23730   9.429  23.911  14.082
 2039DOPC   C3A23731   9.539  23.771  13.662
 2039DOPC   C4A23732   9.589  23.521  13.332
 2039DOPC   C1B23733   9.749  24.311  14.142
 2039DOPC   D2B23734   9.689  24.261  13.722
 2039DOPC   C3B23735   9.929  24.311  13.332
 2039DOPC   C4B23736   9.889  24.281  12.872
 2040DOPC   NC323737   2.099  19.064  15.512
 2040DOPC   PO423738   2.519  18.744  15.512
 2040DOPC   GL123739   2.249  18.654  15.292
 2040DOPC   GL223740   1.929  18.664  15.192
 2040DOPC   C1A23741   2.269  18.924  14.902
 2040DOPC   D2A23742   2.169  19.134  14.602
 2040DOPC   C3A23743   1.819  19.174  14.362
 2040DOPC   C4A23744   1.749  19.194  13.872
 2040DOPC   C1B23745   1.709  18.294  14.962
 2040DOPC   D2B23746   1.749  18.154  14.492
 2040DOPC   C3B23747   1.849  18.544  14.412
 2040DOPC   C4B23748   2.139  18.814  14.182
 2041DOPC   NC323749   7.989   2.834  14.792
 2041DOPC   PO423750   7.769   2.494  14.982
 2041DOPC   GL123751   7.829   2.334  14.562
 2041DOPC   GL223752   8.209   2.334  14.412
 2041DOPC   C1A23753   7.629   2.064  14.172
 2041DOPC   D2A23754   7.739   1.974  13.792
 2041DOPC   C3A23755   7.919   1.894  13.422
 2041DOPC   C4A23756   7.889   1.664  13.092
 2041DOPC   C1B23757   8.429   2.584  14.062
 2041DOPC   D2B23758   8.299   2.674  13.672
 2041DOPC   C3B23759   8.149   2.404  13.322
 2041DOPC   C4B23760   8.159   2.484  12.872
 2042DOPC   NC323761   5.589  10.134  15.072
 2042DOPC   PO423762   5.179  10.244  15.012
 2042DOPC   GL123763   5.339  10.454  14.702
 2042DOPC   GL223764   5.139  10.654  14.552
 2042DOPC   C1A23765   5.469  10.234  14.442
 2042DOPC   D2A23766   5.659  10.194  14.082
 2042DOPC   C3A23767   5.509  10.224  13.642
 2042DOPC   C4A23768   5.299   9.894  13.672
 2042DOPC   C1B23769   4.819  10.614  14.172
 2042DOPC   D2B23770   4.659  10.664  13.732
 2042DOPC   C3B23771   4.319  11.004  13.572
 2042DOPC   C4B23772   4.159  11.424  13.482
 2043DOPC   NC323773  11.859  22.981  15.442
 2043DOPC   PO423774  11.699  22.641  15.212
 2043DOPC   GL123775  11.809  22.811  14.812
 2043DOPC   GL223776  12.219  22.891  14.652
 2043DOPC   C1A23777  11.809  23.031  14.292
 2043DOPC   D2A23778  11.859  22.921  13.842
 2043DOPC   C3A23779  12.269  22.901  13.662
 2043DOPC   C4A23780  12.709  22.941  13.502
 2043DOPC   C1B23781  12.269  22.981  14.182
 2043DOPC   D2B23782  12.539  23.241  13.962
 2043DOPC   C3B23783  12.959  23.091  13.882
 2043DOPC   C4B23784  13.409  23.181  13.762
 2044DOPC   NC323785   4.059  10.154  11.092
 2044DOPC   PO423786   4.189  10.434  11.192
 2044DOPC   GL123787   4.159  10.714  11.622
 2044DOPC   GL223788   4.439  10.874  11.542
 2044DOPC   C1A23789   4.289  10.994  12.042
 2044DOPC   D2A23790   4.499  11.264  12.262
 2044DOPC   C3A23791   4.549  11.184  12.732
 2044DOPC   C4A23792   4.489  11.194  13.152
 2044DOPC   C1B23793   4.749  11.094  11.752
 2044DOPC   D2B23794   5.049  11.234  12.052
 2044DOPC   C3B23795   4.949  11.514  12.552
 2044DOPC   C4B23796   4.999  11.264  12.902
 2045DOPC   NC323797   9.429  20.244  10.612
 2045DOPC   PO423798   9.649  19.874  10.762
 2045DOPC   GL123799   9.629  19.894  11.302
 2045DOPC   GL223800   9.429  20.064  11.482
 2045DOPC   C1A23801   9.849  19.754  11.682
 2045DOPC   D2A23802  10.109  20.034  12.102
 2045DOPC   C3A23803  10.219  19.754  12.442
 2045DOPC   C4A23804  10.229  19.634  12.852
 2045DOPC   C1B23805   9.629  20.194  11.782
 2045DOPC   D2B23806   9.629  20.164  12.332
 2045DOPC   C3B23807   9.559  20.404  12.692
 2045DOPC   C4B23808   9.669  20.444  13.062
 2046DOPC   NC323809  13.679  21.841  11.622
 2046DOPC   PO423810  14.099  21.841  11.742
 2046DOPC   GL123811  14.139  21.871  12.172
 2046DOPC   GL223812  14.439  21.931  12.162
 2046DOPC   C1A23813  13.939  22.191  12.572
 2046DOPC   D2A23814  13.799  22.271  12.972
 2046DOPC   C3A23815  13.879  21.971  13.342
 2046DOPC   C4A23816  13.999  21.761  13.642
 2046DOPC   C1B23817  14.399  21.651  12.502
 2046DOPC   D2B23818  14.349  21.481  12.912
 2046DOPC   C3B23819  14.609  21.344  13.182
 2046DOPC   C4B23820  14.899  21.084  13.372
 2047DOPC   NC323821   7.549   7.904  14.922
 2047DOPC   PO423822   7.489   7.494  15.022
 2047DOPC   GL123823   7.349   7.464  14.582
 2047DOPC   GL223824   6.929   7.474  14.552
 2047DOPC   C1A23825   7.519   7.464  14.262
 2047DOPC   D2A23826   7.419   7.744  13.832
 2047DOPC   C3A23827   7.249   7.774  13.332
 2047DOPC   C4A23828   7.019   7.814  12.942
 2047DOPC   C1B23829   6.909   7.634  14.102
 2047DOPC   D2B23830   6.899   7.634  13.672
 2047DOPC   C3B23831   6.759   7.944  13.332
 2047DOPC   C4B23832   6.379   8.124  13.242
 2048DOPC   NC323833  22.459   8.554  11.192
 2048DOPC   PO423834  22.699   8.394  11.542
 2048DOPC   GL123835  22.419   8.454  11.922
 2048DOPC   GL223836  22.239   8.204  11.872
 2048DOPC   C1A23837  22.499   8.524  12.262
 2048DOPC   D2A23838  22.399   8.764  12.572
 2048DOPC   C3A23839  22.279   8.684  12.982
 2048DOPC   C4A23840  22.519   8.704  13.402
 2048DOPC   C1B23841  22.189   8.084  12.312
 2048DOPC   D2B23842  22.039   7.964  12.742
 2048DOPC   C3B23843  22.109   8.164  13.112
 2048DOPC   C4B23844  22.499   8.134  13.392
 2049DOPC   NC323845  20.289  15.974  15.602
 2049DOPC   PO423846  20.729  16.064  15.672
 2049DOPC   GL123847  20.889  16.114  15.262
 2049DOPC   GL223848  21.189  15.934  15.162
 2049DOPC   C1A23849  20.859  16.304  14.882
 2049DOPC   D2A23850  20.879  16.444  14.472
 2049DOPC   C3A23851  20.529  16.494  14.272
 2049DOPC   C4A23852  20.139  16.434  14.242
 2049DOPC   C1B23853  21.289  16.104  14.762
 2049DOPC   D2B23854  21.419  16.294  14.382
 2049DOPC   C3B23855  21.789  16.414  14.202
 2049DOPC   C4B23856  22.219  16.434  14.192
 2050DOPC   NC323857  22.739   7.984  11.872
 2050DOPC   PO423858  22.749   7.514  11.842
 2050DOPC   GL123859  22.589   7.654  12.262
 2050DOPC   GL223860  22.679   7.934  12.362
 2050DOPC   C1A23861  22.239   7.514  12.552
 2050DOPC   D2A23862  22.049   7.224  12.902
 2050DOPC   C3A23863  21.819   7.574  13.222
 2050DOPC   C4A23864  21.709   7.934  13.102
 2050DOPC   C1B23865  22.489   7.994  12.812
 2050DOPC   D2B23866  22.299   7.714  13.102
 2050DOPC   C3B23867  22.179   7.684  13.522
 2050DOPC   C4B23868  22.319   7.804  13.792
 2051DOPC   NC323869  16.829   4.814  11.332
 2051DOPC   PO423870  17.009   5.174  11.412
 2051DOPC   GL123871  17.099   4.864  11.852
 2051DOPC   GL223872  17.429   4.804  11.952
 2051DOPC   C1A23873  16.759   4.894  12.002
 2051DOPC   D2A23874  16.729   5.014  12.452
 2051DOPC   C3A23875  17.009   5.034  12.842
 2051DOPC   C4A23876  16.969   4.774  13.172
 2051DOPC   C1B23877  17.349   4.734  12.412
 2051DOPC   D2B23878  17.189   4.504  12.792
 2051DOPC   C3B23879  17.409   4.464  13.102
 2051DOPC   C4B23880  17.739   4.774  13.302
 2052DOPC   NC323881  12.269  24.861  11.122
 2052DOPC   PO423882  11.849  24.651  11.302
 2052DOPC   GL123883  11.809  24.521  11.732
 2052DOPC   GL223884  11.709  24.171  11.912
 2052DOPC   C1A23885  12.129  24.671  12.082
 2052DOPC   D2A23886  12.149  24.511  12.572
 2052DOPC   C3A23887  11.759  24.311  12.782
 2052DOPC   C4A23888  11.589  24.331  13.252
 2052DOPC   C1B23889  11.639  24.431  12.272
 2052DOPC   D2B23890  11.439  24.691  12.522
 2052DOPC   C3B23891  11.749  24.821  12.762
 2052DOPC   C4B23892  12.029  24.661  13.092
 2053DOPC   NC323893   9.839   1.024  14.892
 2053DOPC   PO423894  10.319   0.724  14.902
 2053DOPC   GL123895  10.379   0.594  14.432
 2053DOPC   GL223896  10.029   0.594  14.522
 2053DOPC   C1A23897  10.449   0.424  13.982
 2053DOPC   D2A23898  10.519   0.234  13.522
 2053DOPC   C3A23899  10.329   0.344  13.172
 2053DOPC   C4A23900  10.189   0.704  12.892
 2053DOPC   C1B23901   9.879   0.424  14.152
 2053DOPC   D2B23902   9.999   0.304  13.732
 2053DOPC   C3B23903   9.929   0.574  13.392
 2053DOPC   C4B23904   9.969   0.994  13.312
 2054DOPC   NC323905  18.849   3.654  11.552
 2054DOPC   PO423906  19.299   3.674  11.592
 2054DOPC   GL123907  19.349   3.424  12.032
 2054DOPC   GL223908  19.019   3.604  12.162
 2054DOPC   C1A23909  19.239   3.424  12.572
 2054DOPC   D2A23910  19.529   3.574  12.952
 2054DOPC   C3A23911  19.509   3.444  13.412
 2054DOPC   C4A23912  19.799   3.444  13.722
 2054DOPC   C1B23913  19.059   3.884  12.562
 2054DOPC   D2B23914  19.049   3.874  12.982
 2054DOPC   C3B23915  18.929   4.074  13.302
 2054DOPC   C4B23916  18.929   4.544  13.402
 2055DOPC   NC323917   6.529   0.474  11.492
 2055DOPC   PO423918   6.899   0.834  11.512
 2055DOPC   GL123919   6.749   0.974  11.912
 2055DOPC   GL223920   6.809   1.304  12.062
 2055DOPC   C1A23921   6.409   1.184  12.322
 2055DOPC   D2A23922   6.409   1.124  12.672
 2055DOPC   C3A23923   6.779   1.114  12.942
 2055DOPC   C4A23924   7.049   1.124  13.292
 2055DOPC   C1B23925   6.869   1.064  12.392
 2055DOPC   D2B23926   7.179   0.994  12.652
 2055DOPC   C3B23927   7.519   1.084  12.542
 2055DOPC   C4B23928   7.719   1.424  12.582
 2056DOPC   NC323929  21.419  18.044  12.362
 2056DOPC   PO423930  20.889  18.224  12.322
 2056DOPC   GL123931  20.569  18.074  12.672
 2056DOPC   GL223932  20.599  17.744  12.912
 2056DOPC   C1A23933  20.839  18.214  13.062
 2056DOPC   D2A23934  21.239  18.444  13.152
 2056DOPC   C3A23935  21.469  18.524  13.612
 2056DOPC   C4A23936  21.879  18.584  13.712
 2056DOPC   C1B23937  20.629  17.844  13.442
 2056DOPC   D2B23938  20.999  17.764  13.732
 2056DOPC   C3B23939  21.359  17.794  13.712
 2056DOPC   C4B23940  21.679  18.054  13.732
 2057DOPC   NC323941   3.639   0.604  15.812
 2057DOPC   PO423942   3.519   0.384  15.472
 2057DOPC   GL123943   3.569   0.494  15.012
 2057DOPC   GL223944   3.879   0.454  14.872
 2057DOPC   C1A23945   3.529   0.724  14.522
 2057DOPC   D2A23946   3.519   1.164  14.292
 2057DOPC   C3A23947   3.229   1.234  13.962
 2057DOPC   C4A23948   3.379   1.204  13.542
 2057DOPC   C1B23949   4.089   0.484  14.492
 2057DOPC   D2B23950   4.219   0.524  14.122
 2057DOPC   C3B23951   4.479   0.154  13.852
 2057DOPC   C4B23952   4.249  -0.316  13.732
 2058DOPC   NC323953   6.909   7.814  14.882
 2058DOPC   PO423954   6.919   8.254  14.762
 2058DOPC   GL123955   6.889   8.254  14.262
 2058DOPC   GL223956   7.159   8.114  14.052
 2058DOPC   C1A23957   6.949   8.664  13.952
 2058DOPC   D2A23958   6.819   8.844  13.532
 2058DOPC   C3A23959   7.259   8.894  13.392
 2058DOPC   C4A23960   7.419   9.124  13.112
 2058DOPC   C1B23961   7.219   8.224  13.562
 2058DOPC   D2B23962   7.299   8.264  13.132
 2058DOPC   C3B23963   7.539   7.964  12.902
 2058DOPC   C4B23964   7.459   7.764  12.512
 2059DOPC   NC323965  19.249   3.894  15.452
 2059DOPC   PO423966  19.389   3.894  15.032
 2059DOPC   GL123967  19.289   3.624  14.672
 2059DOPC   GL223968  19.319   3.324  14.772
 2059DOPC   C1A23969  19.329   3.624  14.252
 2059DOPC   D2A23970  19.389   3.834  13.792
 2059DOPC   C3A23971  19.479   3.984  13.362
 2059DOPC   C4A23972  19.639   4.124  12.992
 2059DOPC   C1B23973  19.259   3.154  14.372
 2059DOPC   D2B23974  19.409   3.044  14.002
 2059DOPC   C3B23975  19.249   2.694  13.722
 2059DOPC   C4B23976  19.129   2.534  13.352
 2060DOPC   NC323977   6.019   7.064  10.912
 2060DOPC   PO423978   6.319   7.404  10.942
 2060DOPC   GL123979   6.339   7.344  11.382
 2060DOPC   GL223980   6.039   7.234  11.492
 2060DOPC   C1A23981   6.389   7.414  11.762
 2060DOPC   D2A23982   6.369   7.364  12.112
 2060DOPC   C3A23983   6.529   7.194  12.502
 2060DOPC   C4A23984   6.809   7.104  12.862
 2060DOPC   C1B23985   6.039   7.044  11.912
 2060DOPC   D2B23986   5.999   7.094  12.422
 2060DOPC   C3B23987   6.279   6.834  12.752
 2060DOPC   C4B23988   6.359   6.594  13.112
 2061DOPC   NC323989  16.869   9.544  14.562
 2061DOPC   PO423990  17.239   9.424  14.832
 2061DOPC   GL123991  17.349   9.534  14.412
 2061DOPC   GL223992  17.469   9.804  14.162
 2061DOPC   C1A23993  17.209   9.294  14.022
 2061DOPC   D2A23994  17.059   9.264  13.692
 2061DOPC   C3A23995  17.129   9.654  13.522
 2061DOPC   C4A23996  17.219   9.804  13.102
 2061DOPC   C1B23997  17.559   9.644  13.792
 2061DOPC   D2B23998  17.699   9.414  13.402
 2061DOPC   C3B23999  17.779   9.324  12.942
 2061DOPC   C4B24000  17.679   9.184  12.432
 2062DOPC   NC324001  20.279  19.024  12.442
 2062DOPC   PO424002  19.969  18.544  12.332
 2062DOPC   GL124003  20.039  18.604  12.672
 2062DOPC   GL224004  19.749  18.444  12.772
 2062DOPC   C1A24005  20.079  18.354  13.072
 2062DOPC   D2A24006  20.279  18.104  13.082
 2062DOPC   C3A24007  20.209  17.674  13.282
 2062DOPC   C4A24008  19.919  17.454  13.502
 2062DOPC   C1B24009  19.509  18.494  13.242
 2062DOPC   D2B24010  19.309  18.364  13.602
 2062DOPC   C3B24011  19.339  18.664  13.912
 2062DOPC   C4B24012  19.269  19.104  13.892
 2063DOPC   NC324013  18.009   3.784  14.982
 2063DOPC   PO424014  18.439   3.704  15.142
 2063DOPC   GL124015  18.789   3.844  14.782
 2063DOPC   GL224016  18.789   3.514  14.592
 2063DOPC   C1A24017  19.029   3.944  14.392
 2063DOPC   D2A24018  19.009   4.114  14.002
 2063DOPC   C3A24019  19.129   4.464  13.872
 2063DOPC   C4A24020  19.329   4.814  13.862
 2063DOPC   C1B24021  18.449   3.614  14.292
 2063DOPC   D2B24022  18.209   3.734  13.862
 2063DOPC   C3B24023  18.169   4.164  13.762
 2063DOPC   C4B24024  18.239   4.604  13.842
 2064DOPC   NC324025   1.829   6.464  15.402
 2064DOPC   PO424026   1.549   6.624  15.032
 2064DOPC   GL124027   1.679   6.924  14.732
 2064DOPC   GL224028   1.829   6.744  14.592
 2064DOPC   C1A24029   1.549   7.044  14.312
 2064DOPC   D2A24030   1.809   6.924  13.902
 2064DOPC   C3A24031   1.759   7.004  13.482
 2064DOPC   C4A24032   1.679   7.134  13.042
 2064DOPC   C1B24033   1.909   6.604  14.272
 2064DOPC   D2B24034   2.149   6.314  14.082
 2064DOPC   C3B24035   1.909   6.084  13.862
 2064DOPC   C4B24036   1.989   5.624  13.622
 2065DOPC   NC324037   2.749  13.224  15.122
 2065DOPC   PO424038   3.119  12.964  14.922
 2065DOPC   GL124039   2.879  12.874  14.642
 2065DOPC   GL224040   2.899  12.524  14.602
 2065DOPC   C1A24041   2.759  13.014  14.102
 2065DOPC   D2A24042   2.399  12.974  13.772
 2065DOPC   C3A24043   1.979  13.164  13.632
 2065DOPC   C4A24044   2.049  13.304  13.182
 2065DOPC   C1B24045   2.959  12.604  14.282
 2065DOPC   D2B24046   3.139  12.774  13.882
 2065DOPC   C3B24047   2.899  12.834  13.552
 2065DOPC   C4B24048   2.539  12.784  13.302
 2066DOPC   NC324049  19.489  18.424  16.382
 2066DOPC   PO424050  19.099  18.354  16.132
 2066DOPC   GL124051  19.269  18.134  15.822
 2066DOPC   GL224052  19.539  17.934  15.722
 2066DOPC   C1A24053  19.139  17.914  15.432
 2066DOPC   D2A24054  19.029  17.654  15.122
 2066DOPC   C3A24055  18.689  17.584  14.862
 2066DOPC   C4A24056  18.759  17.464  14.412
 2066DOPC   C1B24057  19.579  18.134  15.372
 2066DOPC   D2B24058  19.389  17.984  14.982
 2066DOPC   C3B24059  19.539  17.994  14.572
 2066DOPC   C4B24060  19.529  17.684  14.302
 2067DOPC   NC324061   4.199   8.314  15.162
 2067DOPC   PO424062   4.579   8.454  14.972
 2067DOPC   GL124063   4.289   8.714  14.752
 2067DOPC   GL224064   3.989   8.674  14.622
 2067DOPC   C1A24065   4.539   8.934  14.312
 2067DOPC   D2A24066   4.739   9.084  13.952
 2067DOPC   C3A24067   4.809   9.084  13.552
 2067DOPC   C4A24068   5.179   9.034  13.252
 2067DOPC   C1B24069   3.689   8.904  14.292
 2067DOPC   D2B24070   3.709   8.874  13.912
 2067DOPC   C3B24071   4.029   8.624  13.632
 2067DOPC   C4B24072   4.229   8.374  13.242
 2068DOPC   NC324073  19.929  20.374  11.822
 2068DOPC   PO424074  20.389  20.354  11.702
 2068DOPC   GL124075  20.319  20.464  12.172
 2068DOPC   GL224076  20.589  20.634  12.222
 2068DOPC   C1A24077  20.139  20.364  12.582
 2068DOPC   D2A24078  20.249  20.204  12.972
 2068DOPC   C3A24079  20.709  20.164  13.162
 2068DOPC   C4A24080  20.879  20.144  13.502
 2068DOPC   C1B24081  20.339  20.814  12.602
 2068DOPC   D2B24082  19.929  20.734  12.992
 2068DOPC   C3B24083  19.529  20.724  12.812
 2068DOPC   C4B24084  19.149  20.624  12.962
 2069DOPC   NC324085   3.199  23.061  15.632
 2069DOPC   PO424086   3.629  22.911  15.542
 2069DOPC   GL124087   3.499  22.801  15.012
 2069DOPC   GL224088   3.619  22.961  14.782
 2069DOPC   C1A24089   3.299  22.511  14.872
 2069DOPC   D2A24090   3.219  22.321  14.492
 2069DOPC   C3A24091   3.399  22.191  13.972
 2069DOPC   C4A24092   3.409  22.321  13.592
 2069DOPC   C1B24093   3.529  23.221  14.472
 2069DOPC   D2B24094   3.729  23.441  14.132
 2069DOPC   C3B24095   3.539  23.481  13.752
 2069DOPC   C4B24096   3.679  23.791  13.452
 2070DOPC   NC324097  19.809  19.234  15.772
 2070DOPC   PO424098  19.479  19.494  15.752
 2070DOPC   GL124099  19.579  19.694  15.422
 2070DOPC   GL224100  19.479  19.574  15.192
 2070DOPC   C1A24101  20.059  19.654  15.252
 2070DOPC   D2A24102  20.489  19.714  15.192
 2070DOPC   C3A24103  20.529  19.484  14.842
 2070DOPC   C4A24104  20.799  19.414  14.572
 2070DOPC   C1B24105  19.749  19.634  14.822
 2070DOPC   D2B24106  19.649  19.574  14.402
 2070DOPC   C3B24107  19.559  19.174  14.352
 2070DOPC   C4B24108  19.729  18.874  14.032
 2071DOPC   NC324109  17.159  19.044  11.852
 2071DOPC   PO424110  17.309  19.424  11.752
 2071DOPC   GL124111  17.469  19.464  12.122
 2071DOPC   GL224112  17.409  19.184  12.292
 2071DOPC   C1A24113  17.569  19.574  12.592
 2071DOPC   D2A24114  17.549  19.474  13.032
 2071DOPC   C3A24115  17.729  19.754  13.332
 2071DOPC   C4A24116  17.799  19.984  13.772
 2071DOPC   C1B24117  17.189  19.224  12.702
 2071DOPC   D2B24118  16.889  19.454  12.912
 2071DOPC   C3B24119  17.119  19.534  13.362
 2071DOPC   C4B24120  17.329  19.894  13.632
 2072DOPC   NC324121  15.349  16.614  11.712
 2072DOPC   PO424122  14.939  16.814  11.492
 2072DOPC   GL124123  14.729  16.764  11.862
 2072DOPC   GL224124  14.389  16.884  11.832
 2072DOPC   C1A24125  14.729  16.654  12.312
 2072DOPC   D2A24126  14.489  16.714  12.672
 2072DOPC   C3A24127  14.259  17.004  12.722
 2072DOPC   C4A24128  13.999  17.244  12.872
 2072DOPC   C1B24129  14.229  16.664  12.172
 2072DOPC   D2B24130  14.269  16.284  12.452
 2072DOPC   C3B24131  14.179  16.314  12.842
 2072DOPC   C4B24132  14.079  16.464  13.222
 2073DOPC   NC324133   3.399  22.931  11.342
 2073DOPC   PO424134   3.449  22.791  11.762
 2073DOPC   GL124135   3.519  22.681  12.192
 2073DOPC   GL224136   3.649  22.271  12.222
 2073DOPC   C1A24137   3.329  22.781  12.602
 2073DOPC   D2A24138   3.589  22.811  13.032
 2073DOPC   C3A24139   3.719  22.451  13.182
 2073DOPC   C4A24140   3.729  22.081  13.212
 2073DOPC   C1B24141   3.709  22.401  12.672
 2073DOPC   D2B24142   4.129  22.511  12.822
 2073DOPC   C3B24143   4.459  22.251  12.832
 2073DOPC   C4B24144   4.629  21.751  12.792
 2074DOPC   NC324145  15.009   7.104  14.882
 2074DOPC   PO424146  14.789   7.434  14.692
 2074DOPC   GL124147  15.019   7.504  14.252
 2074DOPC   GL224148  14.759   7.444  14.082
 2074DOPC   C1A24149  15.169   7.674  13.862
 2074DOPC   D2A24150  15.339   7.824  13.382
 2074DOPC   C3A24151  15.079   8.004  13.112
 2074DOPC   C4A24152  14.699   7.844  12.992
 2074DOPC   C1B24153  14.999   7.154  13.862
 2074DOPC   D2B24154  15.339   6.854  13.892
 2074DOPC   C3B24155  15.299   6.464  13.682
 2074DOPC   C4B24156  15.289   6.034  13.722
 2075DOPC   NC324157  18.619  10.174  14.762
 2075DOPC   PO424158  18.699  10.614  14.652
 2075DOPC   GL124159  18.699  10.384  14.262
 2075DOPC   GL224160  18.529  10.724  14.142
 2075DOPC   C1A24161  18.679  10.024  13.922
 2075DOPC   D2A24162  18.679  10.064  13.392
 2075DOPC   C3A24163  18.669  10.494  13.292
 2075DOPC   C4A24164  18.639  10.954  13.442
 2075DOPC   C1B24165  18.229  10.804  13.712
 2075DOPC   D2B24166  18.159  10.714  13.262
 2075DOPC   C3B24167  18.429  10.474  12.882
 2075DOPC   C4B24168  18.699  10.384  12.682
 2076DOPC   NC324169  18.089  13.144  15.212
 2076DOPC   PO424170  18.169  13.514  15.052
 2076DOPC   GL124171  18.279  13.664  14.652
 2076DOPC   GL224172  18.259  13.414  14.592
 2076DOPC   C1A24173  18.259  13.894  14.242
 2076DOPC   D2A24174  18.089  13.884  13.752
 2076DOPC   C3A24175  18.489  14.024  13.562
 2076DOPC   C4A24176  18.649  14.074  13.182
 2076DOPC   C1B24177  18.519  13.484  14.172
 2076DOPC   D2B24178  18.869  13.494  14.022
 2076DOPC   C3B24179  19.189  13.464  13.822
 2076DOPC   C4B24180  19.449  13.474  13.482
 2077DOPC   NC324181  10.319   6.504  10.762
 2077DOPC   PO424182  10.429   6.834  10.992
 2077DOPC   GL124183  10.439   7.104  11.392
 2077DOPC   GL224184  10.679   7.274  11.462
 2077DOPC   C1A24185  10.249   7.044  11.752
 2077DOPC   D2A24186  10.279   7.084  12.212
 2077DOPC   C3A24187   9.959   7.074  12.502
 2077DOPC   C4A24188   9.669   7.284  12.732
 2077DOPC   C1B24189  10.859   7.354  11.952
 2077DOPC   D2B24190  11.289   7.354  12.132
 2077DOPC   C3B24191  11.319   7.334  12.622
 2077DOPC   C4B24192  11.659   7.194  12.982
 2078DOPC   NC324193   9.599  13.604  14.872
 2078DOPC   PO424194   9.689  13.164  14.672
 2078DOPC   GL124195   9.869  13.254  14.252
 2078DOPC   GL224196   9.999  13.024  14.002
 2078DOPC   C1A24197   9.839  13.504  13.822
 2078DOPC   D2A24198  10.109  13.744  13.572
 2078DOPC   C3A24199   9.949  13.784  13.152
 2078DOPC   C4A24200   9.869  13.524  12.792
 2078DOPC   C1B24201  10.009  13.104  13.602
 2078DOPC   D2B24202   9.749  13.304  13.302
 2078DOPC   C3B24203   9.579  13.724  13.432
 2078DOPC   C4B24204   9.569  14.154  13.392
 2079DOPC   NC324205  15.699  23.521  16.002
 2079DOPC   PO424206  15.889  23.391  15.682
 2079DOPC   GL124207  15.809  23.441  15.202
 2079DOPC   GL224208  15.699  23.761  15.172
 2079DOPC   C1A24209  16.079  23.631  14.862
 2079DOPC   D2A24210  16.099  23.811  14.432
 2079DOPC   C3A24211  16.079  23.641  14.082
 2079DOPC   C4A24212  15.989  23.471  13.602
 2079DOPC   C1B24213  15.679  23.911  14.752
 2079DOPC   D2B24214  15.649  24.211  14.542
 2079DOPC   C3B24215  15.719  24.091  14.232
 2079DOPC   C4B24216  15.769  24.421  13.842
 2080DOPC   NC324217  16.119   8.104  10.892
 2080DOPC   PO424218  15.749   8.094  11.062
 2080DOPC   GL124219  15.919   8.314  11.352
 2080DOPC   GL224220  16.139   8.484  11.252
 2080DOPC   C1A24221  15.989   8.554  11.712
 2080DOPC   D2A24222  16.009   8.914  12.052
 2080DOPC   C3A24223  16.129   8.984  12.442
 2080DOPC   C4A24224  16.149   8.804  12.812
 2080DOPC   C1B24225  16.349   8.244  11.542
 2080DOPC   D2B24226  16.629   7.994  11.812
 2080DOPC   C3B24227  16.699   8.204  12.252
 2080DOPC   C4B24228  16.339   8.104  12.542
 2081DOPC   NC324229   6.969  12.804  10.712
 2081DOPC   PO424230   7.299  12.734  10.892
 2081DOPC   GL124231   7.479  12.794  11.322
 2081DOPC   GL224232   7.399  12.524  11.522
 2081DOPC   C1A24233   7.769  12.854  11.812
 2081DOPC   D2A24234   8.059  12.794  12.162
 2081DOPC   C3A24235   8.159  12.614  12.622
 2081DOPC   C4A24236   8.129  12.364  12.942
 2081DOPC   C1B24237   7.549  12.444  11.952
 2081DOPC   D2B24238   7.789  12.444  12.392
 2081DOPC   C3B24239   7.709  12.224  12.702
 2081DOPC   C4B24240   7.679  12.324  13.172
 2082DOPC   NC324241  25.479   7.524  15.722
 2082DOPC   PO424242  25.299   7.724  15.182
 2082DOPC   GL124243  25.059   7.964  14.992
 2082DOPC   GL224244  24.759   8.094  14.892
 2082DOPC   C1A24245  25.139   7.974  14.622
 2082DOPC   D2A24246  25.049   8.184  14.332
 2082DOPC   C3A24247  24.749   7.994  13.982
 2082DOPC   C4A24248  24.509   8.064  13.672
 2082DOPC   C1B24249  24.559   8.294  14.452
 2082DOPC   D2B24250  24.399   8.394  14.112
 2082DOPC   C3B24251  24.439   8.794  13.872
 2082DOPC   C4B24252  24.369   9.074  13.542
 2083DOPC   NC324253  12.449  22.591  15.652
 2083DOPC   PO424254  12.849  22.481  15.422
 2083DOPC   GL124255  12.619  22.581  15.082
 2083DOPC   GL224256  12.779  22.551  14.782
 2083DOPC   C1A24257  12.299  22.381  14.862
 2083DOPC   D2A24258  11.849  22.261  14.812
 2083DOPC   C3A24259  11.659  22.371  14.422
 2083DOPC   C4A24260  11.419  22.701  14.222
 2083DOPC   C1B24261  12.449  22.521  14.432
 2083DOPC   D2B24262  12.079  22.521  14.192
 2083DOPC   C3B24263  12.169  22.381  13.742
 2083DOPC   C4B24264  12.499  22.451  13.392
 2084DOPC   NC324265  16.089   6.684  15.102
 2084DOPC   PO424266  16.019   6.444  14.712
 2084DOPC   GL124267  16.089   6.614  14.282
 2084DOPC   GL224268  16.389   6.484  14.132
 2084DOPC   C1A24269  15.779   6.454  13.902
 2084DOPC   D2A24270  15.769   6.494  13.522
 2084DOPC   C3A24271  16.209   6.474  13.402
 2084DOPC   C4A24272  16.509   6.474  13.072
 2084DOPC   C1B24273  16.369   6.204  13.832
 2084DOPC   D2B24274  16.329   5.914  13.532
 2084DOPC   C3B24275  16.599   6.004  13.282
 2084DOPC   C4B24276  16.629   5.904  12.802
 2085DOPC   NC324277  22.169   0.404  15.962
 2085DOPC   PO424278  21.989   0.764  15.862
 2085DOPC   GL124279  22.029   0.514  15.492
 2085DOPC   GL224280  21.879   0.804  15.232
 2085DOPC   C1A24281  22.179   0.334  15.142
 2085DOPC   D2A24282  22.339   0.414  14.712
 2085DOPC   C3A24283  22.729   0.544  14.512
 2085DOPC   C4A24284  22.919   0.664  14.182
 2085DOPC   C1B24285  21.659   0.404  15.142
 2085DOPC   D2B24286  21.739   0.004  15.012
 2085DOPC   C3B24287  21.929   0.124  14.702
 2085DOPC   C4B24288  21.999   0.294  14.342
 2086DOPC   NC324289   4.119  12.724  11.142
 2086DOPC   PO424290   4.039  13.184  11.292
 2086DOPC   GL124291   3.949  12.984  11.642
 2086DOPC   GL224292   3.869  12.654  11.562
 2086DOPC   C1A24293   3.829  12.914  12.062
 2086DOPC   D2A24294   3.839  13.234  12.432
 2086DOPC   C3A24295   3.469  13.624  12.572
 2086DOPC   C4A24296   3.279  13.964  12.802
 2086DOPC   C1B24297   3.669  12.234  11.712
 2086DOPC   D2B24298   3.269  12.154  11.892
 2086DOPC   C3B24299   2.949  12.164  12.292
 2086DOPC   C4B24300   2.949  11.974  12.692
 2087DOPC   NC324301  10.789  21.264  11.162
 2087DOPC   PO424302  10.479  20.924  10.982
 2087DOPC   GL124303  10.609  20.864  11.382
 2087DOPC   GL224304  10.449  20.584  11.412
 2087DOPC   C1A24305  10.739  20.694  11.882
 2087DOPC   D2A24306  10.719  20.704  12.332
 2087DOPC   C3A24307  10.529  20.654  12.672
 2087DOPC   C4A24308  10.349  20.344  12.962
 2087DOPC   C1B24309  10.569  20.274  11.712
 2087DOPC   D2B24310  10.669  20.214  12.102
 2087DOPC   C3B24311  10.439  20.234  12.402
 2087DOPC   C4B24312  10.049  20.184  12.622
 2088DOPC   NC324313  24.389  13.444  11.242
 2088DOPC   PO424314  24.569  13.554  11.662
 2088DOPC   GL124315  24.459  13.454  12.072
 2088DOPC   GL224316  24.309  13.624  12.322
 2088DOPC   C1A24317  24.589  13.234  12.432
 2088DOPC   D2A24318  24.639  13.014  12.822
 2088DOPC   C3A24319  24.349  13.144  13.062
 2088DOPC   C4A24320  24.249  13.444  13.442
 2088DOPC   C1B24321  24.529  13.784  12.682
 2088DOPC   D2B24322  24.769  13.524  12.932
 2088DOPC   C3B24323  24.809  13.554  13.382
 2088DOPC   C4B24324  25.079  13.944  13.692
 2089DOPC   NC324325  10.659  15.474  14.632
 2089DOPC   PO424326  11.169  15.564  14.602
 2089DOPC   GL124327  10.859  15.614  14.172
 2089DOPC   GL224328  10.529  15.594  14.132
 2089DOPC   C1A24329  10.909  15.524  13.762
 2089DOPC   D2A24330  10.999  15.204  13.372
 2089DOPC   C3A24331  11.259  15.354  13.132
 2089DOPC   C4A24332  11.319  15.674  12.882
 2089DOPC   C1B24333  10.439  15.714  13.682
 2089DOPC   D2B24334  10.159  15.744  13.262
 2089DOPC   C3B24335  10.489  15.784  12.822
 2089DOPC   C4B24336  10.939  15.934  12.642
 2090DOPC   NC324337   0.279  11.154  11.332
 2090DOPC   PO424338   0.199  11.424  11.652
 2090DOPC   GL124339   0.159  11.254  11.992
 2090DOPC   GL224340  -0.139  11.324  12.092
 2090DOPC   C1A24341   0.339  11.134  12.442
 2090DOPC   D2A24342   0.309  11.324  12.912
 2090DOPC   C3A24343   0.289  11.144  13.302
 2090DOPC   C4A24344  -0.009  10.774  13.512
 2090DOPC   C1B24345  -0.259  11.394  12.482
 2090DOPC   D2B24346  -0.349  11.354  12.842
 2090DOPC   C3B24347  -0.109  11.604  13.082
 2090DOPC   C4B24348   0.001  11.914  13.202
 2091DOPC   NC324349  18.669   7.834  14.942
 2091DOPC   PO424350  19.129   8.004  14.872
 2091DOPC   GL124351  18.919   8.034  14.502
 2091DOPC   GL224352  18.689   7.844  14.472
 2091DOPC   C1A24353  18.859   8.094  13.992
 2091DOPC   D2A24354  18.789   8.074  13.612
 2091DOPC   C3A24355  18.489   7.894  13.412
 2091DOPC   C4A24356  18.139   8.004  13.182
 2091DOPC   C1B24357  18.599   7.454  14.242
 2091DOPC   D2B24358  18.339   7.084  14.182
 2091DOPC   C3B24359  18.129   7.164  13.902
 2091DOPC   C4B24360  17.909   7.074  13.512
 2092DOPC   NC324361  14.129  25.291  11.532
 2092DOPC   PO424362  13.919  24.911  11.612
 2092DOPC   GL124363  13.789  25.161  11.932
 2092DOPC   GL224364  13.489  25.001  12.072
 2092DOPC   C1A24365  13.819  25.421  12.342
 2092DOPC   D2A24366  14.019  25.381  12.602
 2092DOPC   C3A24367  14.039  25.301  13.032
 2092DOPC   C4A24368  13.879  25.281  13.452
 2092DOPC   C1B24369  13.689  24.951  12.372
 2092DOPC   D2B24370  13.999  24.711  12.672
 2092DOPC   C3B24371  13.959  24.791  13.112
 2092DOPC   C4B24372  14.029  24.801  13.592
 2093DOPC   NC324373  15.569  17.194  15.432
 2093DOPC   PO424374  15.789  17.584  15.262
 2093DOPC   GL124375  15.789  17.424  14.892
 2093DOPC   GL224376  15.999  17.124  14.772
 2093DOPC   C1A24377  15.639  17.524  14.522
 2093DOPC   D2A24378  15.349  17.274  14.142
 2093DOPC   C3A24379  15.569  17.024  13.862
 2093DOPC   C4A24380  15.849  16.934  13.512
 2093DOPC   C1B24381  16.179  17.364  14.492
 2093DOPC   D2B24382  16.289  17.234  14.032
 2093DOPC   C3B24383  16.649  17.434  13.752
 2093DOPC   C4B24384  16.639  17.874  13.692
 2094DOPC   NC324385  14.109  14.384  14.502
 2094DOPC   PO424386  14.419  14.434  14.812
 2094DOPC   GL124387  14.659  14.744  14.732
 2094DOPC   GL224388  14.699  15.114  14.812
 2094DOPC   C1A24389  14.909  14.874  14.352
 2094DOPC   D2A24390  15.089  14.984  13.992
 2094DOPC   C3A24391  15.419  14.614  13.882
 2094DOPC   C4A24392  15.639  14.234  14.052
 2094DOPC   C1B24393  14.569  15.194  14.292
 2094DOPC   D2B24394  14.739  15.364  13.882
 2094DOPC   C3B24395  14.779  15.254  13.452
 2094DOPC   C4B24396  14.859  15.124  13.132
 2095DOPC   NC324397   7.889  12.984  14.522
 2095DOPC   PO424398   8.019  12.504  14.702
 2095DOPC   GL124399   7.859  12.604  14.182
 2095DOPC   GL224400   8.169  12.624  14.152
 2095DOPC   C1A24401   7.609  12.764  13.822
 2095DOPC   D2A24402   7.489  12.844  13.372
 2095DOPC   C3A24403   7.769  13.154  13.192
 2095DOPC   C4A24404   7.839  13.594  13.142
 2095DOPC   C1B24405   8.089  12.494  13.772
 2095DOPC   D2B24406   8.159  12.254  13.412
 2095DOPC   C3B24407   8.509  11.994  13.512
 2095DOPC   C4B24408   8.779  11.674  13.752
 2096DOPC   NC324409   7.209   1.094  11.122
 2096DOPC   PO424410   7.429   0.574  11.152
 2096DOPC   GL124411   7.329   0.534  11.642
 2096DOPC   GL224412   7.039   0.424  11.702
 2096DOPC   C1A24413   7.219   0.714  12.082
 2096DOPC   D2A24414   7.209   0.514  12.492
 2096DOPC   C3A24415   7.089   0.554  12.922
 2096DOPC   C4A24416   7.279   0.614  13.382
 2096DOPC   C1B24417   6.949   0.254  12.062
 2096DOPC   D2B24418   6.729  -0.106  12.272
 2096DOPC   C3B24419   6.799  -0.256  12.652
 2096DOPC   C4B24420   6.659  -0.146  13.042
 2097DOPC   NC324421  11.789  12.554  13.892
 2097DOPC   PO424422  12.009  12.234  13.932
 2097DOPC   GL124423  12.089  12.254  13.582
 2097DOPC   GL224424  12.409  12.164  13.472
 2097DOPC   C1A24425  11.919  12.334  13.152
 2097DOPC   D2A24426  11.579  12.384  12.822
 2097DOPC   C3A24427  11.559  12.714  12.732
 2097DOPC   C4A24428  11.439  13.074  12.382
 2097DOPC   C1B24429  12.419  12.224  13.132
 2097DOPC   D2B24430  12.219  12.234  12.762
 2097DOPC   C3B24431  12.489  12.214  12.512
 2097DOPC   C4B24432  12.769  12.314  12.182
 2098DOPC   NC324433  17.139   8.594  14.622
 2098DOPC   PO424434  17.099   8.284  14.302
 2098DOPC   GL124435  17.499   8.334  14.082
 2098DOPC   GL224436  17.569   8.074  14.042
 2098DOPC   C1A24437  17.659   8.404  13.702
 2098DOPC   D2A24438  17.929   8.484  13.312
 2098DOPC   C3A24439  17.709   8.314  12.942
 2098DOPC   C4A24440  17.859   8.044  12.652
 2098DOPC   C1B24441  17.949   8.004  13.692
 2098DOPC   D2B24442  18.079   7.544  13.552
 2098DOPC   C3B24443  17.929   7.514  13.162
 2098DOPC   C4B24444  17.939   7.524  12.712
 2099DOPC   NC324445  16.369  23.231  15.802
 2099DOPC   PO424446  16.729  23.421  15.982
 2099DOPC   GL124447  16.859  23.701  15.552
 2099DOPC   GL224448  16.689  23.651  15.222
 2099DOPC   C1A24449  17.119  23.821  15.112
 2099DOPC   D2A24450  17.229  23.551  14.752
 2099DOPC   C3A24451  16.949  23.631  14.332
 2099DOPC   C4A24452  16.559  23.621  14.182
 2099DOPC   C1B24453  16.469  23.301  15.132
 2099DOPC   D2B24454  16.159  23.081  14.892
 2099DOPC   C3B24455  15.969  23.351  14.492
 2099DOPC   C4B24456  15.639  23.571  14.322
 2100DOPC   NC324457  24.649  18.174  12.092
 2100DOPC   PO424458  24.879  18.094  12.402
 2100DOPC   GL124459  24.979  18.034  12.782
 2100DOPC   GL224460  25.089  17.674  12.852
 2100DOPC   C1A24461  25.219  18.064  13.132
 2100DOPC   D2A24462  25.419  18.154  13.552
 2100DOPC   C3A24463  25.399  17.864  13.962
 2100DOPC   C4A24464  25.509  17.804  14.362
 2100DOPC   C1B24465  25.579  17.724  12.952
 2100DOPC   D2B24466  25.886  17.754  13.332
 2100DOPC   C3B24467  25.706  17.514  13.622
 2100DOPC   C4B24468  25.419  17.354  13.952
 2101DOPC   NC324469  13.049  15.604  14.762
 2101DOPC   PO424470  13.509  15.524  14.712
 2101DOPC   GL124471  13.429  15.144  14.342
 2101DOPC   GL224472  13.699  15.464  14.192
 2101DOPC   C1A24473  13.149  15.134  13.922
 2101DOPC   D2A24474  13.079  14.984  13.542
 2101DOPC   C3A24475  13.129  15.374  13.222
 2101DOPC   C4A24476  13.299  15.634  12.992
 2101DOPC   C1B24477  13.759  15.864  13.902
 2101DOPC   D2B24478  14.059  16.034  13.592
 2101DOPC   C3B24479  14.149  15.884  13.262
 2101DOPC   C4B24480  14.239  15.814  12.842
 2102DOPC   NC324481  13.059   0.584  14.922
 2102DOPC   PO424482  12.789   1.024  15.172
 2102DOPC   GL124483  12.649   0.844  14.772
 2102DOPC   GL224484  12.609   0.444  14.832
 2102DOPC   C1A24485  12.729   0.754  14.382
 2102DOPC   D2A24486  13.049   0.634  14.112
 2102DOPC   C3A24487  13.149   0.824  13.662
 2102DOPC   C4A24488  13.209   0.884  13.202
 2102DOPC   C1B24489  12.589   0.304  14.522
 2102DOPC   D2B24490  12.609   0.294  14.002
 2102DOPC   C3B24491  12.599   0.714  13.892
 2102DOPC   C4B24492  12.579   1.254  13.802
 2103DOPC   NC324493   8.029  23.391  11.412
 2103DOPC   PO424494   8.069  22.941  11.272
 2103DOPC   GL124495   7.899  23.041  11.732
 2103DOPC   GL224496   7.919  23.441  11.952
 2103DOPC   C1A24497   7.649  23.071  12.082
 2103DOPC   D2A24498   7.399  23.231  12.292
 2103DOPC   C3A24499   7.259  22.961  12.482
 2103DOPC   C4A24500   6.859  22.871  12.642
 2103DOPC   C1B24501   8.299  23.671  12.162
 2103DOPC   D2B24502   8.439  24.061  12.272
 2103DOPC   C3B24503   8.849  24.111  12.622
 2103DOPC   C4B24504   9.099  24.151  13.002
 2104DOPC   NC324505  11.919  14.304  14.282
 2104DOPC   PO424506  12.119  13.894  14.372
 2104DOPC   GL124507  12.049  13.964  13.932
 2104DOPC   GL224508  11.709  13.834  13.882
 2104DOPC   C1A24509  11.859  14.254  13.632
 2104DOPC   D2A24510  11.499  14.224  13.372
 2104DOPC   C3A24511  11.249  13.954  13.682
 2104DOPC   C4A24512  10.849  13.724  13.822
 2104DOPC   C1B24513  11.749  13.754  13.512
 2104DOPC   D2B24514  11.729  13.474  13.212
 2104DOPC   C3B24515  11.789  13.724  12.842
 2104DOPC   C4B24516  11.649  13.564  12.462
 2105DOPC   NC324517   6.919   6.684  15.042
 2105DOPC   PO424518   6.639   6.264  14.922
 2105DOPC   GL124519   6.459   6.194  14.432
 2105DOPC   GL224520   6.209   6.394  14.372
 2105DOPC   C1A24521   6.479   6.214  13.952
 2105DOPC   D2A24522   6.549   6.564  13.672
 2105DOPC   C3A24523   6.909   6.614  13.842
 2105DOPC   C4A24524   7.269   6.624  14.032
 2105DOPC   C1B24525   6.509   6.734  14.122
 2105DOPC   D2B24526   6.739   7.054  14.002
 2105DOPC   C3B24527   6.779   6.974  13.462
 2105DOPC   C4B24528   6.839   7.394  13.222
 2106DOPC   NC324529  19.619   8.324  15.152
 2106DOPC   PO424530  19.529   8.804  15.062
 2106DOPC   GL124531  19.529   8.394  14.682
 2106DOPC   GL224532  19.309   8.384  14.602
 2106DOPC   C1A24533  19.779   8.384  14.192
 2106DOPC   D2A24534  19.629   8.534  13.752
 2106DOPC   C3A24535  19.989   8.744  13.402
 2106DOPC   C4A24536  19.999   8.594  13.042
 2106DOPC   C1B24537  19.259   8.384  14.112
 2106DOPC   D2B24538  19.199   8.284  13.662
 2106DOPC   C3B24539  19.429   8.204  13.252
 2106DOPC   C4B24540  19.769   8.154  12.922
 2107DOPC   NC324541  12.949   9.604  13.922
 2107DOPC   PO424542  13.169   9.314  14.092
 2107DOPC   GL124543  13.419   9.204  13.682
 2107DOPC   GL224544  13.499   9.564  13.662
 2107DOPC   C1A24545  13.659   9.154  13.412
 2107DOPC   D2A24546  13.669   9.214  12.982
 2107DOPC   C3A24547  13.689   8.934  12.772
 2107DOPC   C4A24548  13.699   8.904  12.312
 2107DOPC   C1B24549  13.519   9.604  13.242
 2107DOPC   D2B24550  13.169   9.384  12.892
 2107DOPC   C3B24551  12.939   9.664  12.712
 2107DOPC   C4B24552  12.709  10.084  12.462
 2108DOPC   NC324553   5.859  20.324  15.602
 2108DOPC   PO424554   5.469  20.344  15.352
 2108DOPC   GL124555   5.419  20.204  14.872
 2108DOPC   GL224556   5.109  20.194  14.832
 2108DOPC   C1A24557   5.499  19.984  14.482
 2108DOPC   D2A24558   5.939  19.994  14.332
 2108DOPC   C3A24559   6.069  20.204  13.962
 2108DOPC   C4A24560   6.269  20.594  13.762
 2108DOPC   C1B24561   5.219  20.594  14.612
 2108DOPC   D2B24562   4.929  20.694  14.292
 2108DOPC   C3B24563   4.919  20.524  13.812
 2108DOPC   C4B24564   4.949  20.764  13.462
 2109DOPC   NC324565  25.229  15.094  15.782
 2109DOPC   PO424566  25.656  15.094  15.622
 2109DOPC   GL124567  25.589  15.074  15.262
 2109DOPC   GL224568  25.219  15.254  15.262
 2109DOPC   C1A24569  25.599  14.744  14.922
 2109DOPC   D2A24570  25.906  14.744  14.562
 2109DOPC   C3A24571  26.126  14.954  14.232
 2109DOPC   C4A24572  26.056  14.834  13.782
 2109DOPC   C1B24573  25.069  15.464  14.902
 2109DOPC   D2B24574  24.989  15.664  14.462
 2109DOPC   C3B24575  24.999  15.834  14.122
 2109DOPC   C4B24576  25.089  15.804  13.752
 2110DOPC   NC324577  25.199  14.844  12.172
 2110DOPC   PO424578  24.789  14.944  12.062
 2110DOPC   GL124579  24.579  14.974  12.432
 2110DOPC   GL224580  24.389  15.164  12.492
 2110DOPC   C1A24581  24.419  14.734  12.852
 2110DOPC   D2A24582  24.549  14.664  13.262
 2110DOPC   C3A24583  24.689  14.904  13.622
 2110DOPC   C4A24584  24.869  15.324  13.672
 2110DOPC   C1B24585  24.469  15.214  12.882
 2110DOPC   D2B24586  24.719  15.204  13.222
 2110DOPC   C3B24587  25.079  15.564  13.272
 2110DOPC   C4B24588  25.389  15.824  13.332
 2111DOPC   NC324589   3.509  13.374  11.232
 2111DOPC   PO424590   3.689  13.834  11.252
 2111DOPC   GL124591   3.759  13.654  11.662
 2111DOPC   GL224592   4.109  13.594  11.582
 2111DOPC   C1A24593   3.639  13.344  11.942
 2111DOPC   D2A24594   3.449  12.944  11.692
 2111DOPC   C3A24595   3.489  12.604  11.962
 2111DOPC   C4A24596   3.459  12.464  12.232
 2111DOPC   C1B24597   4.099  13.464  12.022
 2111DOPC   D2B24598   4.399  13.494  12.352
 2111DOPC   C3B24599   4.369  13.404  12.732
 2111DOPC   C4B24600   4.139  13.104  12.912
 2112DOPC   NC324601   9.919  -0.546  11.332
 2112DOPC   PO424602   9.609  -0.296  11.212
 2112DOPC   GL124603   9.749  -0.066  11.562
 2112DOPC   GL224604   9.719   0.284  11.492
 2112DOPC   C1A24605  10.049  -0.066  11.912
 2112DOPC   D2A24606  10.409  -0.006  12.222
 2112DOPC   C3A24607  10.299  -0.026  12.652
 2112DOPC   C4A24608  10.589  -0.066  13.112
 2112DOPC   C1B24609   9.369   0.234  11.882
 2112DOPC   D2B24610   9.319   0.394  12.312
 2112DOPC   C3B24611   9.569   0.554  12.572
 2112DOPC   C4B24612   9.739   0.724  12.922
 2113DOPC   NC324613   6.929  16.984  15.432
 2113DOPC   PO424614   6.749  17.084  15.022
 2113DOPC   GL124615   6.619  17.234  14.602
 2113DOPC   GL224616   6.739  17.034  14.352
 2113DOPC   C1A24617   6.389  17.344  14.222
 2113DOPC   D2A24618   6.199  17.134  13.862
 2113DOPC   C3A24619   5.989  17.394  13.522
 2113DOPC   C4A24620   5.769  17.694  13.302
 2113DOPC   C1B24621   6.669  16.974  13.852
 2113DOPC   D2B24622   6.409  17.134  13.422
 2113DOPC   C3B24623   6.629  17.124  13.092
 2113DOPC   C4B24624   6.719  16.774  12.862
 2114DOPC   NC324625  20.279  14.404  11.332
 2114DOPC   PO424626  19.999  14.394  11.502
 2114DOPC   GL124627  19.839  14.184  11.892
 2114DOPC   GL224628  19.809  14.454  12.012
 2114DOPC   C1A24629  20.009  14.094  12.352
 2114DOPC   D2A24630  20.419  13.994  12.622
 2114DOPC   C3A24631  20.529  13.984  13.102
 2114DOPC   C4A24632  20.559  14.094  13.422
 2114DOPC   C1B24633  19.509  14.214  12.232
 2114DOPC   D2B24634  19.229  13.914  12.322
 2114DOPC   C3B24635  19.279  13.654  12.772
 2114DOPC   C4B24636  19.469  13.784  13.122
 2115DOPC   NC324637  15.439   4.304  10.962
 2115DOPC   PO424638  15.049   4.234  11.172
 2115DOPC   GL124639  14.709   4.504  11.402
 2115DOPC   GL224640  14.579   4.874  11.252
 2115DOPC   C1A24641  14.409   4.394  11.632
 2115DOPC   D2A24642  14.419   4.264  12.042
 2115DOPC   C3A24643  14.649   4.054  12.452
 2115DOPC   C4A24644  14.849   3.584  12.632
 2115DOPC   C1B24645  14.299   4.874  11.562
 2115DOPC   D2B24646  14.259   4.714  12.012
 2115DOPC   C3B24647  14.259   4.624  12.402
 2115DOPC   C4B24648  14.149   4.384  12.822
 2116DOPC   NC324649  10.669  22.051  16.042
 2116DOPC   PO424650  10.789  21.971  15.482
 2116DOPC   GL124651  10.619  22.131  15.132
 2116DOPC   GL224652  10.969  22.041  14.872
 2116DOPC   C1A24653  10.569  22.351  14.742
 2116DOPC   D2A24654  10.669  22.541  14.302
 2116DOPC   C3A24655  10.969  22.781  14.012
 2116DOPC   C4A24656  11.339  22.991  13.852
 2116DOPC   C1B24657  11.039  22.181  14.572
 2116DOPC   D2B24658  11.099  22.321  14.122
 2116DOPC   C3B24659  10.969  22.041  13.712
 2116DOPC   C4B24660  11.029  21.921  13.352
 2117DOPC   NC324661   6.349  23.041  15.182
 2117DOPC   PO424662   6.789  22.991  15.462
 2117DOPC   GL124663   6.839  22.851  14.912
 2117DOPC   GL224664   6.789  23.101  14.752
 2117DOPC   C1A24665   6.909  22.541  14.632
 2117DOPC   D2A24666   7.149  22.331  14.272
 2117DOPC   C3A24667   7.249  22.641  13.982
 2117DOPC   C4A24668   7.189  23.071  13.862
 2117DOPC   C1B24669   6.629  23.081  14.402
 2117DOPC   D2B24670   6.669  23.071  13.942
 2117DOPC   C3B24671   6.789  22.711  13.702
 2117DOPC   C4B24672   6.939  22.291  13.742
 2118DOPC   NC324673  13.029  21.174  11.082
 2118DOPC   PO424674  13.169  21.234  11.582
 2118DOPC   GL124675  12.919  21.244  11.992
 2118DOPC   GL224676  12.989  21.391  12.282
 2118DOPC   C1A24677  12.699  20.914  12.142
 2118DOPC   D2A24678  12.509  20.774  12.512
 2118DOPC   C3A24679  12.269  20.994  12.902
 2118DOPC   C4A24680  12.359  21.421  13.082
 2118DOPC   C1B24681  13.489  21.381  12.402
 2118DOPC   D2B24682  13.699  21.691  12.552
 2118DOPC   C3B24683  13.939  21.751  12.952
 2118DOPC   C4B24684  14.089  21.421  13.332
 2119DOPC   NC324685  18.929   5.074  15.662
 2119DOPC   PO424686  19.099   4.904  15.292
 2119DOPC   GL124687  18.979   4.614  14.952
 2119DOPC   GL224688  19.059   4.304  14.772
 2119DOPC   C1A24689  19.009   4.784  14.582
 2119DOPC   D2A24690  19.039   5.104  14.122
 2119DOPC   C3A24691  18.849   4.904  13.742
 2119DOPC   C4A24692  18.489   4.894  13.432
 2119DOPC   C1B24693  18.759   4.324  14.472
 2119DOPC   D2B24694  18.729   4.624  14.122
 2119DOPC   C3B24695  18.459   5.034  14.232
 2119DOPC   C4B24696  17.979   5.294  14.232
 2120DOPC   NC324697  14.699  18.464  15.152
 2120DOPC   PO424698  14.299  18.364  15.052
 2120DOPC   GL124699  14.219  18.644  14.702
 2120DOPC   GL224700  14.259  18.904  14.612
 2120DOPC   C1A24701  14.439  18.534  14.242
 2120DOPC   D2A24702  14.809  18.314  13.982
 2120DOPC   C3A24703  15.099  18.194  14.262
 2120DOPC   C4A24704  15.529  18.184  14.252
 2120DOPC   C1B24705  14.329  19.054  14.122
 2120DOPC   D2B24706  14.479  19.074  13.732
 2120DOPC   C3B24707  14.109  19.074  13.432
 2120DOPC   C4B24708  13.679  18.884  13.342
 2121DOPC   NC324709   8.779  13.984  14.762
 2121DOPC   PO424710   9.139  13.744  14.462
 2121DOPC   GL124711   9.139  13.594  14.102
 2121DOPC   GL224712   9.399  13.314  14.072
 2121DOPC   C1A24713   9.119  13.554  13.622
 2121DOPC   D2A24714   9.109  13.914  13.282
 2121DOPC   C3A24715   8.989  13.824  12.872
 2121DOPC   C4A24716   8.879  14.284  12.592
 2121DOPC   C1B24717   9.529  13.094  13.732
 2121DOPC   D2B24718   9.609  12.804  13.352
 2121DOPC   C3B24719   9.449  12.924  12.992
 2121DOPC   C4B24720   9.499  13.184  12.692
 2122DOPC   NC324721   7.649   9.094  10.752
 2122DOPC   PO424722   7.329   9.354  10.852
 2122DOPC   GL124723   7.219   9.404  11.312
 2122DOPC   GL224724   7.069   9.094  11.282
 2122DOPC   C1A24725   7.019   9.274  11.732
 2122DOPC   D2A24726   6.839   9.184  12.052
 2122DOPC   C3A24727   6.879   9.174  12.492
 2122DOPC   C4A24728   7.109   9.434  12.732
 2122DOPC   C1B24729   6.799   8.844  11.632
 2122DOPC   D2B24730   6.869   8.644  12.022
 2122DOPC   C3B24731   7.019   8.664  12.512
 2122DOPC   C4B24732   7.029   8.714  12.902
 2123DOPC   NC324733  14.719   1.284  15.282
 2123DOPC   PO424734  15.129   1.464  15.392
 2123DOPC   GL124735  15.189   1.374  14.932
 2123DOPC   GL224736  14.919   1.274  14.842
 2123DOPC   C1A24737  15.289   1.164  14.482
 2123DOPC   D2A24738  15.479   1.004  14.002
 2123DOPC   C3A24739  15.599   0.624  14.022
 2123DOPC   C4A24740  15.809   0.184  13.892
 2123DOPC   C1B24741  14.729   0.894  14.562
 2123DOPC   D2B24742  14.759   0.484  14.302
 2123DOPC   C3B24743  14.899   0.454  13.822
 2123DOPC   C4B24744  15.209   0.664  13.662
 2124DOPC   NC324745   0.889   3.304  15.352
 2124DOPC   PO424746   1.229   3.014  15.322
 2124DOPC   GL124747   1.239   3.154  14.972
 2124DOPC   GL224748   1.169   2.764  14.852
 2124DOPC   C1A24749   1.259   3.174  14.562
 2124DOPC   D2A24750   1.299   3.004  14.162
 2124DOPC   C3A24751   1.249   2.494  14.202
 2124DOPC   C4A24752   1.289   2.134  14.382
 2124DOPC   C1B24753   0.879   2.884  14.462
 2124DOPC   D2B24754   0.889   2.794  13.972
 2124DOPC   C3B24755   0.909   2.524  13.652
 2124DOPC   C4B24756   0.519   2.294  13.762
 2125DOPC   NC324757  24.579  11.014  15.542
 2125DOPC   PO424758  24.799  10.694  15.402
 2125DOPC   GL124759  24.929  10.814  15.022
 2125DOPC   GL224760  24.739  10.674  14.812
 2125DOPC   C1A24761  24.779  11.184  14.642
 2125DOPC   D2A24762  24.629  11.314  14.292
 2125DOPC   C3A24763  24.759  11.354  13.922
 2125DOPC   C4A24764  24.799  11.164  13.562
 2125DOPC   C1B24765  24.689  10.334  14.462
 2125DOPC   D2B24766  24.489  10.474  14.082
 2125DOPC   C3B24767  24.459  10.914  13.962
 2125DOPC   C4B24768  24.279  11.244  13.852
 2126DOPC   NC324769  16.849   7.804  11.222
 2126DOPC   PO424770  16.589   7.924  11.072
 2126DOPC   GL124771  16.379   7.674  11.312
 2126DOPC   GL224772  16.199   7.874  11.362
 2126DOPC   C1A24773  16.339   7.584  11.802
 2126DOPC   D2A24774  16.069   7.124  11.992
 2126DOPC   C3A24775  15.679   7.254  12.262
 2126DOPC   C4A24776  15.429   7.194  12.542
 2126DOPC   C1B24777  16.009   7.994  11.712
 2126DOPC   D2B24778  16.259   8.224  12.052
 2126DOPC   C3B24779  16.079   8.534  12.392
 2126DOPC   C4B24780  15.669   8.734  12.572
 2127DOPC   NC324781  18.259  14.124  10.992
 2127DOPC   PO424782  17.919  13.944  11.222
 2127DOPC   GL124783  17.749  13.994  11.652
 2127DOPC   GL224784  17.709  14.314  11.832
 2127DOPC   C1A24785  17.739  13.704  11.902
 2127DOPC   D2A24786  17.489  13.654  12.252
 2127DOPC   C3A24787  17.259  13.314  12.382
 2127DOPC   C4A24788  17.059  12.874  12.372
 2127DOPC   C1B24789  17.499  14.084  12.102
 2127DOPC   D2B24790  17.239  14.184  12.492
 2127DOPC   C3B24791  16.929  14.544  12.492
 2127DOPC   C4B24792  16.769  15.044  12.372
 2128DOPC   NC324793   7.399   6.264  11.252
 2128DOPC   PO424794   7.849   6.394  11.262
 2128DOPC   GL124795   7.889   6.224  11.562
 2128DOPC   GL224796   7.819   5.914  11.532
 2128DOPC   C1A24797   7.679   6.264  11.942
 2128DOPC   D2A24798   7.489   6.244  12.282
 2128DOPC   C3A24799   7.069   6.294  12.472
 2128DOPC   C4A24800   6.739   6.154  12.242
 2128DOPC   C1B24801   8.069   5.894  11.902
 2128DOPC   D2B24802   8.409   5.964  12.102
 2128DOPC   C3B24803   8.499   6.334  12.282
 2128DOPC   C4B24804   8.419   6.544  12.632
 2129DOPC   NC324805  23.549   9.694  15.642
 2129DOPC   PO424806  23.289   9.734  15.332
 2129DOPC   GL124807  23.459   9.574  15.032
 2129DOPC   GL224808  23.299   9.274  14.822
 2129DOPC   C1A24809  23.739   9.574  14.632
 2129DOPC   D2A24810  23.819   9.624  14.172
 2129DOPC   C3A24811  23.549   9.394  13.942
 2129DOPC   C4A24812  23.169   9.424  13.902
 2129DOPC   C1B24813  23.459   8.834  14.732
 2129DOPC   D2B24814  23.449   8.684  14.312
 2129DOPC   C3B24815  23.169   8.844  13.942
 2129DOPC   C4B24816  22.959   8.634  13.522
 2130DOPC   NC324817  22.729   2.944  11.482
 2130DOPC   PO424818  22.909   3.084  11.932
 2130DOPC   GL124819  23.039   3.344  12.322
 2130DOPC   GL224820  23.209   3.654  12.372
 2130DOPC   C1A24821  22.729   3.334  12.682
 2130DOPC   D2A24822  22.259   3.424  12.572
 2130DOPC   C3A24823  21.989   3.784  12.612
 2130DOPC   C4A24824  21.539   3.904  12.852
 2130DOPC   C1B24825  23.279   3.974  12.702
 2130DOPC   D2B24826  23.309   4.024  13.132
 2130DOPC   C3B24827  23.179   3.844  13.432
 2130DOPC   C4B24828  23.009   3.384  13.312
 2131DOPC   NC324829  24.119  25.341  16.132
 2131DOPC   PO424830  24.559  25.361  16.082
 2131DOPC   GL124831  24.609  25.381  15.592
 2131DOPC   GL224832  24.649  25.651  15.572
 2131DOPC   C1A24833  24.509  25.221  15.162
 2131DOPC   D2A24834  24.139  24.891  14.992
 2131DOPC   C3A24835  23.749  25.041  14.902
 2131DOPC   C4A24836  23.309  24.811  14.752
 2131DOPC   C1B24837  24.489  25.751  15.152
 2131DOPC   D2B24838  24.579  25.541  14.712
 2131DOPC   C3B24839  24.479  25.801  14.322
 2131DOPC   C4B24840  24.259  25.651  13.912
 2132DOPC   NC324841  10.559  13.744  10.452
 2132DOPC   PO424842  10.549  13.244  10.622
 2132DOPC   GL124843  10.459  13.224  11.042
 2132DOPC   GL224844  10.319  12.924  11.102
 2132DOPC   C1A24845  10.769  13.444  11.352
 2132DOPC   D2A24846  10.669  13.564  11.842
 2132DOPC   C3A24847  10.459  13.294  12.142
 2132DOPC   C4A24848  10.429  13.044  12.502
 2132DOPC   C1B24849  10.129  12.884  11.552
 2132DOPC   D2B24850  10.279  12.824  11.922
 2132DOPC   C3B24851  10.639  12.714  12.062
 2132DOPC   C4B24852  10.779  12.584  12.512
 2133DOPC   NC324853  17.359  13.604  10.812
 2133DOPC   PO424854  17.079  13.734  10.732
 2133DOPC   GL124855  16.859  13.554  11.022
 2133DOPC   GL224856  16.909  13.744  11.312
 2133DOPC   C1A24857  16.479  13.574  11.442
 2133DOPC   D2A24858  16.569  13.384  11.692
 2133DOPC   C3A24859  16.629  12.944  11.652
 2133DOPC   C4A24860  16.869  12.674  11.652
 2133DOPC   C1B24861  16.779  13.954  11.622
 2133DOPC   D2B24862  16.489  13.934  11.932
 2133DOPC   C3B24863  16.409  13.684  12.302
 2133DOPC   C4B24864  16.199  13.704  12.672
 2134DOPC   NC324865   4.389   7.084  15.692
 2134DOPC   PO424866   4.159   6.864  15.382
 2134DOPC   GL124867   3.979   6.774  14.942
 2134DOPC   GL224868   4.149   6.924  14.712
 2134DOPC   C1A24869   3.769   6.564  14.592
 2134DOPC   D2A24870   3.939   6.814  14.272
 2134DOPC   C3A24871   4.149   7.274  14.212
 2134DOPC   C4A24872   4.499   7.524  14.132
 2134DOPC   C1B24873   4.419   6.874  14.282
 2134DOPC   D2B24874   4.449   6.864  13.892
 2134DOPC   C3B24875   4.159   7.104  13.692
 2134DOPC   C4B24876   4.229   7.274  13.352
 2135DOPC   NC324877  21.999   8.304  15.942
 2135DOPC   PO424878  22.089   8.444  15.482
 2135DOPC   GL124879  22.049   8.404  15.082
 2135DOPC   GL224880  21.869   8.664  14.882
 2135DOPC   C1A24881  21.689   8.194  14.802
 2135DOPC   D2A24882  21.549   8.044  14.372
 2135DOPC   C3A24883  21.279   7.724  14.112
 2135DOPC   C4A24884  20.939   7.424  14.222
 2135DOPC   C1B24885  21.939   8.924  14.582
 2135DOPC   D2B24886  21.789   9.154  14.392
 2135DOPC   C3B24887  21.579   8.964  14.102
 2135DOPC   C4B24888  21.549   8.644  13.662
 2136DOPC   NC324889  10.379  12.144  10.722
 2136DOPC   PO424890  10.749  12.324  10.502
 2136DOPC   GL124891  10.819  12.224  10.902
 2136DOPC   GL224892  10.659  12.514  11.052
 2136DOPC   C1A24893  10.959  12.044  11.232
 2136DOPC   D2A24894  11.119  12.034  11.672
 2136DOPC   C3A24895  11.019  12.514  11.692
 2136DOPC   C4A24896  11.349  12.744  11.602
 2136DOPC   C1B24897  10.699  12.774  11.392
 2136DOPC   D2B24898  10.749  13.074  11.732
 2136DOPC   C3B24899  11.089  12.924  12.022
 2136DOPC   C4B24900  11.089  12.484  12.172
 2137DOPC   NC324901  11.359  10.734  10.602
 2137DOPC   PO424902  11.469  11.084  10.482
 2137DOPC   GL124903  11.519  11.474  10.842
 2137DOPC   GL224904  11.389  11.904  10.812
 2137DOPC   C1A24905  11.539  11.514  11.272
 2137DOPC   D2A24906  11.509  11.694  11.742
 2137DOPC   C3A24907  11.789  11.874  12.052
 2137DOPC   C4A24908  12.129  11.984  12.202
 2137DOPC   C1B24909  11.739  11.964  11.132
 2137DOPC   D2B24910  11.899  12.034  11.522
 2137DOPC   C3B24911  12.019  12.314  11.852
 2137DOPC   C4B24912  12.009  12.414  12.342
 2138DOPC   NC324913  21.059  13.884  15.692
 2138DOPC   PO424914  21.259  14.164  15.602
 2138DOPC   GL124915  20.999  14.184  15.192
 2138DOPC   GL224916  20.659  14.354  15.072
 2138DOPC   C1A24917  21.149  14.414  14.842
 2138DOPC   D2A24918  21.299  14.344  14.442
 2138DOPC   C3A24919  21.009  14.324  14.262
 2138DOPC   C4A24920  20.829  14.534  13.812
 2138DOPC   C1B24921  20.539  14.384  14.632
 2138DOPC   D2B24922  20.649  14.804  14.342
 2138DOPC   C3B24923  20.469  14.854  13.922
 2138DOPC   C4B24924  20.219  15.214  13.682
 2139DOPC   NC324925  13.989  20.284  11.562
 2139DOPC   PO424926  14.129  19.914  11.462
 2139DOPC   GL124927  13.959  20.014  11.952
 2139DOPC   GL224928  14.009  19.744  12.242
 2139DOPC   C1A24929  13.559  19.934  12.072
 2139DOPC   D2A24930  13.229  19.724  12.312
 2139DOPC   C3A24931  12.999  20.064  12.382
 2139DOPC   C4A24932  12.679  20.274  12.612
 2139DOPC   C1B24933  13.909  19.324  12.542
 2139DOPC   D2B24934  13.699  18.894  12.552
 2139DOPC   C3B24935  13.959  18.664  12.822
 2139DOPC   C4B24936  14.159  18.624  13.202
 2140DOPC   NC324937   6.109  24.191  15.652
 2140DOPC   PO424938   5.709  24.191  15.362
 2140DOPC   GL124939   5.989  24.271  15.062
 2140DOPC   GL224940   6.089  23.921  14.832
 2140DOPC   C1A24941   5.989  24.341  14.572
 2140DOPC   D2A24942   5.849  24.591  14.182
 2140DOPC   C3A24943   5.969  25.021  14.202
 2140DOPC   C4A24944   6.239  25.371  14.122
 2140DOPC   C1B24945   5.819  23.761  14.482
 2140DOPC   D2B24946   5.909  23.671  14.072
 2140DOPC   C3B24947   6.129  23.701  13.632
 2140DOPC   C4B24948   6.159  24.021  13.302
 2141DOPC   NC324949  15.089  11.054  14.052
 2141DOPC   PO424950  14.979  10.674  14.342
 2141DOPC   GL124951  15.039  10.554  13.872
 2141DOPC   GL224952  15.279  10.574  13.632
 2141DOPC   C1A24953  14.749  10.444  13.522
 2141DOPC   D2A24954  14.589  10.694  13.282
 2141DOPC   C3A24955  14.799  10.534  12.912
 2141DOPC   C4A24956  14.959  10.344  12.632
 2141DOPC   C1B24957  15.229  10.204  13.252
 2141DOPC   D2B24958  15.259   9.834  12.922
 2141DOPC   C3B24959  15.619   9.674  12.642
 2141DOPC   C4B24960  16.029   9.514  12.362
 2142DOPC   NC324961  22.779   7.954  15.832
 2142DOPC   PO424962  22.839   7.704  15.462
 2142DOPC   GL124963  22.899   7.904  15.052
 2142DOPC   GL224964  22.869   8.134  14.862
 2142DOPC   C1A24965  22.909   7.494  14.692
 2142DOPC   D2A24966  22.869   7.274  14.362
 2142DOPC   C3A24967  23.239   6.884  14.352
 2142DOPC   C4A24968  23.419   6.574  14.552
 2142DOPC   C1B24969  22.869   8.004  14.502
 2142DOPC   D2B24970  23.179   7.804  14.362
 2142DOPC   C3B24971  23.239   7.844  13.992
 2142DOPC   C4B24972  23.269   8.164  13.682
 2143DOPC   NC324973  18.569  13.774  15.142
 2143DOPC   PO424974  18.269  14.064  15.122
 2143DOPC   GL124975  18.289  14.244  14.712
 2143DOPC   GL224976  18.039  14.324  14.522
 2143DOPC   C1A24977  18.629  14.374  14.342
 2143DOPC   D2A24978  18.749  13.944  14.042
 2143DOPC   C3A24979  18.979  14.004  13.732
 2143DOPC   C4A24980  19.069  14.244  13.482
 2143DOPC   C1B24981  18.179  14.334  14.042
 2143DOPC   D2B24982  18.579  14.394  13.892
 2143DOPC   C3B24983  18.639  14.544  13.592
 2143DOPC   C4B24984  18.699  15.044  13.562
 2144DOPC   NC324985  22.749  11.824  15.162
 2144DOPC   PO424986  22.479  12.084  15.402
 2144DOPC   GL124987  22.499  12.244  14.972
 2144DOPC   GL224988  22.769  12.204  14.772
 2144DOPC   C1A24989  22.489  12.594  14.612
 2144DOPC   D2A24990  22.379  12.994  14.712
 2144DOPC   C3A24991  22.169  13.144  14.442
 2144DOPC   C4A24992  21.879  13.364  14.152
 2144DOPC   C1B24993  22.769  12.064  14.422
 2144DOPC   D2B24994  22.499  11.914  14.132
 2144DOPC   C3B24995  22.459  12.134  13.732
 2144DOPC   C4B24996  22.329  12.464  13.652
 2145DOPC   NC324997  17.149   7.714  14.712
 2145DOPC   PO424998  17.509   7.814  14.432
 2145DOPC   GL124999  17.149   7.744  14.162
 2145DOPC   GL225000  17.039   7.924  13.902
 2145DOPC   C1A25001  17.179   7.424  13.982
 2145DOPC   D2A25002  17.369   7.104  13.612
 2145DOPC   C3A25003  17.249   6.694  13.622
 2145DOPC   C4A25004  17.309   6.244  13.562
 2145DOPC   C1B25005  17.249   7.944  13.522
 2145DOPC   D2B25006  17.629   7.924  13.162
 2145DOPC   C3B25007  17.489   7.744  12.792
 2145DOPC   C4B25008  17.469   7.634  12.402
 2146DOPC   NC325009  17.399   6.834  14.892
 2146DOPC   PO425010  16.999   6.944  14.912
 2146DOPC   GL125011  17.009   6.754  14.492
 2146DOPC   GL225012  17.099   6.424  14.362
 2146DOPC   C1A25013  17.239   6.874  14.112
 2146DOPC   D2A25014  17.689   6.934  14.022
 2146DOPC   C3A25015  17.759   6.594  13.642
 2146DOPC   C4A25016  17.609   6.804  13.232
 2146DOPC   C1B25017  16.909   6.494  13.982
 2146DOPC   D2B25018  16.669   6.534  13.582
 2146DOPC   C3B25019  16.959   6.394  13.252
 2146DOPC   C4B25020  17.299   6.344  13.072
 2147DOPC   NC325021   2.709  19.474  11.692
 2147DOPC   PO425022   2.789  19.824  11.792
 2147DOPC   GL125023   2.609  19.624  12.132
 2147DOPC   GL225024   2.489  19.354  12.152
 2147DOPC   C1A25025   2.489  19.814  12.582
 2147DOPC   D2A25026   2.339  19.774  13.032
 2147DOPC   C3A25027   1.999  19.834  13.362
 2147DOPC   C4A25028   1.819  20.044  13.872
 2147DOPC   C1B25029   2.399  19.334  12.552
 2147DOPC   D2B25030   2.439  18.954  12.902
 2147DOPC   C3B25031   2.409  19.064  13.312
 2147DOPC   C4B25032   2.609  19.144  13.742
 2148DOPC   NC325033  20.109   2.654  15.232
 2148DOPC   PO425034  19.719   2.714  15.382
 2148DOPC   GL125035  19.609   2.744  14.952
 2148DOPC   GL225036  19.319   2.764  14.762
 2148DOPC   C1A25037  19.729   3.054  14.532
 2148DOPC   D2A25038  19.789   3.304  14.242
 2148DOPC   C3A25039  19.839   3.784  14.142
 2148DOPC   C4A25040  19.969   4.044  13.852
 2148DOPC   C1B25041  19.369   2.694  14.362
 2148DOPC   D2B25042  19.619   2.544  14.112
 2148DOPC   C3B25043  19.939   2.804  14.072
 2148DOPC   C4B25044  20.209   3.104  13.842
 2149DOPC   NC325045   6.699   8.484  15.142
 2149DOPC   PO425046   6.439   8.144  14.962
 2149DOPC   GL125047   6.369   8.404  14.622
 2149DOPC   GL225048   6.669   8.684  14.422
 2149DOPC   C1A25049   6.329   8.324  14.142
 2149DOPC   D2A25050   6.259   8.184  13.722
 2149DOPC   C3A25051   6.029   7.814  13.702
 2149DOPC   C4A25052   5.999   7.424  13.592
 2149DOPC   C1B25053   6.459   8.794  13.962
 2149DOPC   D2B25054   6.369   9.034  13.572
 2149DOPC   C3B25055   6.409   9.124  13.192
 2149DOPC   C4B25056   6.499   9.224  12.802
 2150DOPC   NC325057   1.679  12.304  11.602
 2150DOPC   PO425058   1.579  11.744  11.512
 2150DOPC   GL125059   1.459  11.754  11.902
 2150DOPC   GL225060   1.349  11.514  12.102
 2150DOPC   C1A25061   1.409  11.994  12.282
 2150DOPC   D2A25062   1.379  12.144  12.642
 2150DOPC   C3A25063   1.319  12.584  12.902
 2150DOPC   C4A25064   1.559  12.584  13.282
 2150DOPC   C1B25065   1.739  11.614  12.292
 2150DOPC   D2B25066   2.069  11.754  12.522
 2150DOPC   C3B25067   2.489  11.584  12.372
 2150DOPC   C4B25068   2.899  11.654  12.382
 2151DOPC   NC325069  20.499  10.594  14.902
 2151DOPC   PO425070  20.929  10.644  15.162
 2151DOPC   GL125071  21.049  10.604  14.792
 2151DOPC   GL225072  20.859  10.474  14.542
 2151DOPC   C1A25073  21.349  10.624  14.472
 2151DOPC   D2A25074  21.509  10.444  14.082
 2151DOPC   C3A25075  21.319  10.574  13.712
 2151DOPC   C4A25076  21.309  10.644  13.292
 2151DOPC   C1B25077  20.619  10.384  14.162
 2151DOPC   D2B25078  20.499  10.194  13.752
 2151DOPC   C3B25079  20.279   9.794  13.612
 2151DOPC   C4B25080  20.489   9.504  13.412
 2152DOPC   NC325081  23.939  23.741  12.452
 2152DOPC   PO425082  23.689  23.311  12.342
 2152DOPC   GL125083  23.879  23.211  12.682
 2152DOPC   GL225084  23.979  23.571  12.932
 2152DOPC   C1A25085  24.029  23.101  13.102
 2152DOPC   D2A25086  24.169  22.861  13.462
 2152DOPC   C3A25087  24.039  22.831  13.902
 2152DOPC   C4A25088  24.249  22.551  14.202
 2152DOPC   C1B25089  23.989  23.681  13.332
 2152DOPC   D2B25090  24.289  23.851  13.652
 2152DOPC   C3B25091  24.539  23.501  13.932
 2152DOPC   C4B25092  24.219  23.221  14.242
 2153DOPC   NC325093  10.409   3.704  14.842
 2153DOPC   PO425094  10.119   3.444  14.742
 2153DOPC   GL125095  10.069   3.674  14.322
 2153DOPC   GL225096   9.849   3.554  14.112
 2153DOPC   C1A25097  10.179   3.994  13.982
 2153DOPC   D2A25098  10.299   4.174  13.622
 2153DOPC   C3A25099  10.449   3.924  13.332
 2153DOPC   C4A25100  10.619   3.614  12.982
 2153DOPC   C1B25101   9.559   3.314  13.862
 2153DOPC   D2B25102   9.689   3.344  13.462
 2153DOPC   C3B25103   9.549   3.494  13.112
 2153DOPC   C4B25104   9.709   3.874  12.862
 2154DOPC   NC325105  15.359   6.684  14.332
 2154DOPC   PO425106  15.039   6.514  14.572
 2154DOPC   GL125107  15.039   6.454  14.112
 2154DOPC   GL225108  14.859   6.214  14.082
 2154DOPC   C1A25109  14.869   6.684  13.872
 2154DOPC   D2A25110  14.539   6.914  13.582
 2154DOPC   C3A25111  14.189   6.784  13.462
 2154DOPC   C4A25112  13.749   6.564  13.322
 2154DOPC   C1B25113  14.849   6.184  13.562
 2154DOPC   D2B25114  14.789   6.024  13.192
 2154DOPC   C3B25115  14.889   5.714  12.982
 2154DOPC   C4B25116  14.869   5.284  13.042
 2155DOPC   NC325117   8.329  14.244  10.882
 2155DOPC   PO425118   7.989  14.124  10.992
 2155DOPC   GL125119   7.999  14.204  11.362
 2155DOPC   GL225120   8.089  14.504  11.362
 2155DOPC   C1A25121   7.859  13.784  11.672
 2155DOPC   D2A25122   7.649  13.534  11.872
 2155DOPC   C3A25123   7.779  13.284  12.212
 2155DOPC   C4A25124   7.829  12.974  12.562
 2155DOPC   C1B25125   8.169  14.714  11.732
 2155DOPC   D2B25126   8.519  14.814  12.072
 2155DOPC   C3B25127   8.869  14.684  12.262
 2155DOPC   C4B25128   9.219  14.594  12.202
 2156DOPC   NC325129   9.339   2.814  10.602
 2156DOPC   PO425130   9.009   3.154  10.602
 2156DOPC   GL125131   9.079   3.254  11.022
 2156DOPC   GL225132   9.369   3.184  11.092
 2156DOPC   C1A25133   8.949   3.074  11.302
 2156DOPC   D2A25134   8.859   3.124  11.742
 2156DOPC   C3A25135   8.549   3.414  11.912
 2156DOPC   C4A25136   8.309   3.394  12.372
 2156DOPC   C1B25137   9.279   3.394  11.472
 2156DOPC   D2B25138   9.319   3.164  11.772
 2156DOPC   C3B25139   9.519   3.334  11.952
 2156DOPC   C4B25140   9.569   3.604  12.282
 2157DOPC   NC325141  17.219  22.751  15.852
 2157DOPC   PO425142  16.889  22.471  15.512
 2157DOPC   GL125143  16.999  22.221  15.112
 2157DOPC   GL225144  17.259  22.301  15.012
 2157DOPC   C1A25145  16.809  21.941  14.822
 2157DOPC   D2A25146  16.499  21.681  14.592
 2157DOPC   C3A25147  16.249  21.721  14.262
 2157DOPC   C4A25148  16.429  21.334  14.112
 2157DOPC   C1B25149  17.539  22.481  14.662
 2157DOPC   D2B25150  17.829  22.561  14.312
 2157DOPC   C3B25151  17.709  22.961  13.972
 2157DOPC   C4B25152  17.399  23.111  13.872
 2158DOPC   NC325153   0.989  14.814  11.722
 2158DOPC   PO425154   1.289  14.534  11.592
 2158DOPC   GL125155   1.479  14.294  11.852
 2158DOPC   GL225156   1.369  14.344  12.242
 2158DOPC   C1A25157   1.779  14.104  11.962
 2158DOPC   D2A25158   1.889  13.684  12.192
 2158DOPC   C3A25159   1.969  13.654  12.652
 2158DOPC   C4A25160   2.019  13.784  13.102
 2158DOPC   C1B25161   1.549  14.014  12.462
 2158DOPC   D2B25162   1.419  13.554  12.482
 2158DOPC   C3B25163   1.089  13.574  12.762
 2158DOPC   C4B25164   1.079  13.564  13.272
 2159DOPC   NC325165   6.039  25.391  15.692
 2159DOPC   PO425166   5.919  25.201  15.212
 2159DOPC   GL125167   5.819  25.031  14.782
 2159DOPC   GL225168   6.109  24.891  14.702
 2159DOPC   C1A25169   5.549  24.681  14.632
 2159DOPC   D2A25170   5.419  24.271  14.512
 2159DOPC   C3A25171   5.659  24.161  14.142
 2159DOPC   C4A25172   5.519  24.351  13.752
 2159DOPC   C1B25173   6.379  24.921  14.402
 2159DOPC   D2B25174   6.319  24.751  13.922
 2159DOPC   C3B25175   5.929  24.691  13.682
 2159DOPC   C4B25176   5.909  24.871  13.342
 2160DOPC   NC325177  11.299  17.284  15.162
 2160DOPC   PO425178  11.279  17.184  14.742
 2160DOPC   GL125179  11.319  16.974  14.322
 2160DOPC   GL225180  11.159  17.174  14.182
 2160DOPC   C1A25181  11.399  16.624  13.992
 2160DOPC   D2A25182  11.239  16.634  13.592
 2160DOPC   C3A25183  10.969  16.304  13.402
 2160DOPC   C4A25184  10.739  16.404  12.872
 2160DOPC   C1B25185  11.349  17.124  13.782
 2160DOPC   D2B25186  11.619  17.004  13.472
 2160DOPC   C3B25187  11.649  17.054  13.042
 2160DOPC   C4B25188  11.539  17.364  12.702
 2161DOPC   NC325189  18.539  11.044  10.962
 2161DOPC   PO425190  18.449  10.674  11.122
 2161DOPC   GL125191  18.029  10.644  11.282
 2161DOPC   GL225192  17.989  10.314  11.432
 2161DOPC   C1A25193  17.739  10.964  11.502
 2161DOPC   D2A25194  17.749  10.954  11.972
 2161DOPC   C3A25195  18.059  10.704  12.132
 2161DOPC   C4A25196  18.309  10.834  12.532
 2161DOPC   C1B25197  17.789  10.524  11.732
 2161DOPC   D2B25198  17.729  10.314  12.202
 2161DOPC   C3B25199  17.589  10.684  12.412
 2161DOPC   C4B25200  17.769  10.844  12.762
 2162DOPC   NC325201  24.489  17.244  12.202
 2162DOPC   PO425202  24.979  17.204  12.212
 2162DOPC   GL125203  25.309  17.284  12.582
 2162DOPC   GL225204  25.319  16.954  12.652
 2162DOPC   C1A25205  25.429  17.254  12.962
 2162DOPC   D2A25206  25.499  17.074  13.402
 2162DOPC   C3A25207  25.886  16.834  13.542
 2162DOPC   C4A25208  26.266  16.804  13.402
 2162DOPC   C1B25209  25.159  16.784  13.042
 2162DOPC   D2B25210  25.199  16.694  13.492
 2162DOPC   C3B25211  25.109  17.004  13.702
 2162DOPC   C4B25212  24.969  17.484  13.712
 2163DOPC   NC325213  16.829   3.064   8.512
 2163DOPC   PO425214  16.929   3.414   8.152
 2163DOPC   GL125215  16.749   3.444   7.702
 2163DOPC   GL225216  16.609   3.174   7.672
 2163DOPC   C1A25217  17.019   3.624   7.372
 2163DOPC   D2A25218  17.429   3.844   7.292
 2163DOPC   C3A25219  17.579   4.324   7.292
 2163DOPC   C4A25220  17.559   4.734   7.032
 2163DOPC   C1B25221  16.549   2.944   7.252
 2163DOPC   D2B25222  16.089   2.834   7.142
 2163DOPC   C3B25223  15.969   2.604   6.812
 2163DOPC   C4B25224  15.969   2.744   6.342
 2164DOPC   NC325225   3.549   4.814  11.472
 2164DOPC   PO425226   3.589   5.284  11.542
 2164DOPC   GL125227   3.349   5.044  11.932
 2164DOPC   GL225228   3.089   5.154  12.152
 2164DOPC   C1A25229   3.479   4.994  12.392
 2164DOPC   D2A25230   3.789   5.044  12.642
 2164DOPC   C3A25231   3.969   4.954  13.012
 2164DOPC   C4A25232   4.059   4.444  13.072
 2164DOPC   C1B25233   2.769   5.394  12.352
 2164DOPC   D2B25234   2.519   5.244  12.632
 2164DOPC   C3B25235   2.609   4.984  12.972
 2164DOPC   C4B25236   3.019   4.834  13.022
 2165DOPC   NC325237  20.229  13.574  15.422
 2165DOPC   PO425238  20.669  13.704  15.322
 2165DOPC   GL125239  20.449  13.884  15.032
 2165DOPC   GL225240  20.089  13.804  15.012
 2165DOPC   C1A25241  20.359  13.794  14.552
 2165DOPC   D2A25242  20.549  13.994  14.172
 2165DOPC   C3A25243  20.349  13.734  13.812
 2165DOPC   C4A25244  20.469  13.624  13.472
 2165DOPC   C1B25245  20.029  13.394  14.772
 2165DOPC   D2B25246  19.689  13.174  14.472
 2165DOPC   C3B25247  19.739  12.784  14.332
 2165DOPC   C4B25248  19.929  12.404  14.522
 2166DOPC   NC325249   8.909  25.271  15.062
 2166DOPC   PO425250   9.289  24.911  14.992
 2166DOPC   GL125251   9.549  24.691  14.682
 2166DOPC   GL225252   9.429  24.501  14.642
 2166DOPC   C1A25253   9.569  24.781  14.222
 2166DOPC   D2A25254   9.479  24.771  13.782
 2166DOPC   C3A25255   9.779  24.751  13.632
 2166DOPC   C4A25256  10.169  24.861  13.482
 2166DOPC   C1B25257   9.239  24.401  14.272
 2166DOPC   D2B25258   9.159  24.271  13.852
 2166DOPC   C3B25259   9.259  24.431  13.412
 2166DOPC   C4B25260   9.499  24.491  13.002
 2167DOPC   NC325261  25.229  11.324  11.672
 2167DOPC   PO425262  25.289  11.764  11.692
 2167DOPC   GL125263  25.139  11.664  12.092
 2167DOPC   GL225264  25.319  11.804  12.232
 2167DOPC   C1A25265  24.849  11.434  12.292
 2167DOPC   D2A25266  24.739  11.394  12.672
 2167DOPC   C3A25267  24.369  11.534  12.952
 2167DOPC   C4A25268  24.199  11.514  13.402
 2167DOPC   C1B25269  25.539  11.894  12.662
 2167DOPC   D2B25270  25.676  12.274  12.822
 2167DOPC   C3B25271  26.036  12.424  12.982
 2167DOPC   C4B25272  26.176  12.354  13.432
 2168DOPC   NC325273   3.069   4.134  11.252
 2168DOPC   PO425274   3.559   4.174  11.392
 2168DOPC   GL125275   3.459   4.434  11.672
 2168DOPC   GL225276   3.229   4.594  11.702
 2168DOPC   C1A25277   3.459   4.504  12.142
 2168DOPC   D2A25278   3.679   4.564  12.652
 2168DOPC   C3A25279   3.479   4.834  12.962
 2168DOPC   C4A25280   3.239   5.154  13.302
 2168DOPC   C1B25281   2.999   4.624  12.082
 2168DOPC   D2B25282   2.829   4.354  12.332
 2168DOPC   C3B25283   2.839   3.964  12.262
 2168DOPC   C4B25284   2.949   3.674  11.822
 2169DOPC   NC325285  17.839  11.504  14.632
 2169DOPC   PO425286  17.999  11.304  14.832
 2169DOPC   GL125287  18.299  11.574  14.432
 2169DOPC   GL225288  18.099  11.654  14.212
 2169DOPC   C1A25289  18.579  11.614  13.972
 2169DOPC   D2A25290  18.679  11.414  13.572
 2169DOPC   C3A25291  19.059  11.194  13.412
 2169DOPC   C4A25292  19.109  10.734  13.392
 2169DOPC   C1B25293  18.149  11.544  13.752
 2169DOPC   D2B25294  18.209  11.324  13.352
 2169DOPC   C3B25295  18.609  11.474  13.072
 2169DOPC   C4B25296  19.019  11.614  13.112
 2170DOPC   NC325297   4.249  24.401  15.382
 2170DOPC   PO425298   4.009  24.071  15.262
 2170DOPC   GL125299   4.039  24.171  14.822
 2170DOPC   GL225300   4.299  24.221  14.682
 2170DOPC   C1A25301   3.759  24.321  14.402
 2170DOPC   D2A25302   3.469  24.611  14.332
 2170DOPC   C3A25303   3.049  24.721  14.132
 2170DOPC   C4A25304   2.589  24.741  14.072
 2170DOPC   C1B25305   4.169  24.621  14.472
 2170DOPC   D2B25306   3.909  24.811  14.042
 2170DOPC   C3B25307   3.579  24.481  13.862
 2170DOPC   C4B25308   3.429  24.191  13.672
 2171DOPC   NC325309  10.549  25.211  15.462
 2171DOPC   PO425310  10.569  25.511  15.062
 2171DOPC   GL125311  10.409  25.491  14.552
 2171DOPC   GL225312  10.189  25.701  14.382
 2171DOPC   C1A25313  10.349  25.191  14.202
 2171DOPC   D2A25314  10.629  25.021  13.922
 2171DOPC   C3A25315  10.589  24.691  13.702
 2171DOPC   C4A25316  10.489  24.351  13.362
 2171DOPC   C1B25317  10.259  25.551  13.922
 2171DOPC   D2B25318  10.419  25.321  13.562
 2171DOPC   C3B25319  10.719  25.081  13.402
 2171DOPC   C4B25320  10.809  24.881  13.062
 2172DOPC   NC325321  14.889  25.641  15.552
 2172DOPC   PO425322  14.489  25.561  15.442
 2172DOPC   GL125323  14.719  25.421  15.142
 2172DOPC   GL225324  14.539  25.191  14.972
 2172DOPC   C1A25325  15.009  25.231  14.852
 2172DOPC   D2A25326  15.199  24.911  14.782
 2172DOPC   C3A25327  15.219  24.511  14.472
 2172DOPC   C4A25328  15.359  24.391  14.052
 2172DOPC   C1B25329  14.639  24.881  14.572
 2172DOPC   D2B25330  14.849  24.731  14.182
 2172DOPC   C3B25331  15.139  24.801  13.832
 2172DOPC   C4B25332  15.389  24.881  13.562
 2173DOPC   NC325333  24.119  12.014  15.552
 2173DOPC   PO425334  23.809  12.284  15.712
 2173DOPC   GL125335  23.789  12.244  15.182
 2173DOPC   GL225336  24.069  12.184  15.012
 2173DOPC   C1A25337  23.789  12.034  14.672
 2173DOPC   D2A25338  23.669  11.794  14.382
 2173DOPC   C3A25339  23.749  11.444  14.132
 2173DOPC   C4A25340  23.749  11.514  13.652
 2173DOPC   C1B25341  24.169  12.444  14.662
 2173DOPC   D2B25342  24.289  12.744  14.302
 2173DOPC   C3B25343  24.229  12.884  13.882
 2173DOPC   C4B25344  24.109  12.934  13.442
 2174DOPC   NC325345   2.829  24.711  15.892
 2174DOPC   PO425346   2.569  24.681  15.542
 2174DOPC   GL125347   2.319  24.551  15.092
 2174DOPC   GL225348   2.689  24.511  14.982
 2174DOPC   C1A25349   2.159  24.521  14.652
 2174DOPC   D2A25350   1.829  24.271  14.602
 2174DOPC   C3A25351   1.629  24.281  14.192
 2174DOPC   C4A25352   1.519  23.941  14.062
 2174DOPC   C1B25353   2.759  24.791  14.632
 2174DOPC   D2B25354   3.059  25.051  14.532
 2174DOPC   C3B25355   3.089  25.431  14.282
 2174DOPC   C4B25356   3.219  25.651  13.982
 2175DOPC   NC325357  16.199   3.094  15.152
 2175DOPC   PO425358  16.289   2.694  15.302
 2175DOPC   GL125359  16.149   2.594  14.902
 2175DOPC   GL225360  16.099   2.274  14.792
 2175DOPC   C1A25361  16.269   2.804  14.522
 2175DOPC   D2A25362  16.549   3.004  14.332
 2175DOPC   C3A25363  16.789   3.004  13.952
 2175DOPC   C4A25364  16.739   2.914  13.512
 2175DOPC   C1B25365  16.069   2.254  14.362
 2175DOPC   D2B25366  16.019   2.624  14.132
 2175DOPC   C3B25367  16.029   2.734  13.662
 2175DOPC   C4B25368  15.839   2.484  13.332
 2176DOPC   NC325369  12.719  21.531  15.142
 2176DOPC   PO425370  13.249  21.681  15.142
 2176DOPC   GL125371  12.929  21.751  14.772
 2176DOPC   GL225372  12.779  21.521  14.592
 2176DOPC   C1A25373  12.689  22.081  14.562
 2176DOPC   D2A25374  12.999  22.401  14.322
 2176DOPC   C3A25375  12.839  22.931  14.422
 2176DOPC   C4A25376  12.539  23.291  14.462
 2176DOPC   C1B25377  12.859  21.381  14.232
 2176DOPC   D2B25378  12.869  21.294  13.792
 2176DOPC   C3B25379  13.249  21.174  13.482
 2176DOPC   C4B25380  13.689  20.904  13.332
 2177DOPC   NC325381  23.469  11.984  15.482
 2177DOPC   PO425382  23.209  11.674  15.352
 2177DOPC   GL125383  23.089  11.574  14.922
 2177DOPC   GL225384  22.769  11.614  14.712
 2177DOPC   C1A25385  23.169  11.854  14.602
 2177DOPC   D2A25386  23.199  11.894  14.112
 2177DOPC   C3A25387  23.289  11.524  13.912
 2177DOPC   C4A25388  23.359  11.244  13.592
 2177DOPC   C1B25389  22.899  11.564  14.282
 2177DOPC   D2B25390  22.829  11.144  14.012
 2177DOPC   C3B25391  22.829  10.794  14.162
 2177DOPC   C4B25392  22.739  10.644  14.442
 2178DOPC   NC325393  22.439   7.634  15.192
 2178DOPC   PO425394  22.169   7.244  15.242
 2178DOPC   GL125395  22.209   7.104  14.802
 2178DOPC   GL225396  22.249   7.434  14.812
 2178DOPC   C1A25397  22.089   6.774  14.452
 2178DOPC   D2A25398  22.079   6.834  14.112
 2178DOPC   C3A25399  22.209   6.674  13.722
 2178DOPC   C4A25400  22.449   6.364  13.392
 2178DOPC   C1B25401  22.059   7.274  14.342
 2178DOPC   D2B25402  21.829   7.214  13.962
 2178DOPC   C3B25403  21.999   7.144  13.652
 2178DOPC   C4B25404  22.239   7.224  13.352
 2179DOPC   NC325405  17.639  10.404  10.372
 2179DOPC   PO425406  17.309  10.584  10.542
 2179DOPC   GL125407  17.189  10.474  11.002
 2179DOPC   GL225408  17.019  10.184  11.172
 2179DOPC   C1A25409  17.319  10.624  11.322
 2179DOPC   D2A25410  17.189  10.644  11.732
 2179DOPC   C3A25411  17.179  10.824  12.112
 2179DOPC   C4A25412  17.239  11.104  12.382
 2179DOPC   C1B25413  17.169  10.134  11.642
 2179DOPC   D2B25414  17.399   9.844  11.822
 2179DOPC   C3B25415  17.339   9.644  12.262
 2179DOPC   C4B25416  17.389   9.504  12.622
 2180DOPC   NC325417  18.819   6.124  15.602
 2180DOPC   PO425418  18.699   5.924  15.202
 2180DOPC   GL125419  18.859   5.814  14.852
 2180DOPC   GL225420  18.699   5.664  14.732
 2180DOPC   C1A25421  19.239   5.694  14.612
 2180DOPC   D2A25422  19.309   5.754  14.202
 2180DOPC   C3A25423  19.649   5.884  13.982
 2180DOPC   C4A25424  19.709   6.294  13.822
 2180DOPC   C1B25425  18.829   5.534  14.262
 2180DOPC   D2B25426  18.609   5.384  13.932
 2180DOPC   C3B25427  18.729   5.324  13.552
 2180DOPC   C4B25428  19.109   5.564  13.332
 2181DOPC   NC325429  19.779  16.824  15.712
 2181DOPC   PO425430  19.999  16.424  15.642
 2181DOPC   GL125431  19.999  16.354  15.342
 2181DOPC   GL225432  20.349  16.274  15.182
 2181DOPC   C1A25433  19.939  15.974  15.062
 2181DOPC   D2A25434  19.779  15.644  14.772
 2181DOPC   C3A25435  20.019  15.334  14.692
 2181DOPC   C4A25436  20.259  14.904  14.702
 2181DOPC   C1B25437  20.439  16.134  14.742
 2181DOPC   D2B25438  20.589  15.914  14.432
 2181DOPC   C3B25439  20.889  16.044  14.172
 2181DOPC   C4B25440  21.309  16.084  13.872
 2182DOPC   NC325441  14.549  12.264  14.042
 2182DOPC   PO425442  14.799  11.904  14.192
 2182DOPC   GL125443  14.729  11.834  13.742
 2182DOPC   GL225444  14.839  11.984  13.442
 2182DOPC   C1A25445  14.579  11.464  13.482
 2182DOPC   D2A25446  14.619  11.204  13.062
 2182DOPC   C3A25447  14.519  11.424  12.812
 2182DOPC   C4A25448  14.519  11.864  12.752
 2182DOPC   C1B25449  14.899  11.684  13.112
 2182DOPC   D2B25450  15.049  11.494  12.812
 2182DOPC   C3B25451  14.899  11.284  12.412
 2182DOPC   C4B25452  14.939  11.344  12.052
 2183DOPC   NC325453  21.199  16.134  15.612
 2183DOPC   PO425454  21.349  16.524  15.682
 2183DOPC   GL125455  21.179  16.774  15.402
 2183DOPC   GL225456  21.179  16.514  15.182
 2183DOPC   C1A25457  21.319  17.114  15.152
 2183DOPC   D2A25458  21.469  17.484  14.932
 2183DOPC   C3A25459  21.349  17.644  14.482
 2183DOPC   C4A25460  21.239  17.794  14.182
 2183DOPC   C1B25461  21.269  16.584  14.802
 2183DOPC   D2B25462  21.489  16.754  14.482
 2183DOPC   C3B25463  21.519  17.184  14.352
 2183DOPC   C4B25464  21.649  17.404  13.972
 2184DOPC   NC325465  13.639   5.384  15.212
 2184DOPC   PO425466  13.709   5.594  14.742
 2184DOPC   GL125467  13.899   5.764  14.302
 2184DOPC   GL225468  14.079   5.454  14.072
 2184DOPC   C1A25469  13.949   5.904  13.902
 2184DOPC   D2A25470  13.879   5.704  13.492
 2184DOPC   C3A25471  13.639   5.984  13.202
 2184DOPC   C4A25472  13.279   6.194  13.002
 2184DOPC   C1B25473  14.029   5.314  13.762
 2184DOPC   D2B25474  13.549   5.364  13.602
 2184DOPC   C3B25475  13.449   5.424  13.292
 2184DOPC   C4B25476  13.489   5.214  12.902
 2185DOPC   NC325477   7.759  17.054  15.222
 2185DOPC   PO425478   7.579  17.354  14.852
 2185DOPC   GL125479   7.729  17.454  14.472
 2185DOPC   GL225480   7.749  17.804  14.392
 2185DOPC   C1A25481   7.659  17.394  14.012
 2185DOPC   D2A25482   7.739  17.414  13.482
 2185DOPC   C3A25483   7.509  17.594  13.312
 2185DOPC   C4A25484   7.479  18.074  13.082
 2185DOPC   C1B25485   7.389  17.794  14.012
 2185DOPC   D2B25486   7.389  18.154  13.822
 2185DOPC   C3B25487   7.229  18.254  13.472
 2185DOPC   C4B25488   7.309  18.714  13.252
 2186DOPC   NC325489   4.719  18.934  15.762
 2186DOPC   PO425490   4.739  19.224  15.492
 2186DOPC   GL125491   4.579  19.424  15.152
 2186DOPC   GL225492   4.589  19.734  15.092
 2186DOPC   C1A25493   4.329  19.464  14.752
 2186DOPC   D2A25494   4.079  19.614  14.402
 2186DOPC   C3A25495   4.229  19.984  14.222
 2186DOPC   C4A25496   4.229  20.264  13.802
 2186DOPC   C1B25497   4.719  19.754  14.642
 2186DOPC   D2B25498   5.009  19.904  14.442
 2186DOPC   C3B25499   5.109  19.864  14.062
 2186DOPC   C4B25500   5.159  19.864  13.652
 2187DOPC   NC325501  23.169  16.934  15.642
 2187DOPC   PO425502  22.789  17.034  15.822
 2187DOPC   GL125503  22.599  17.414  15.622
 2187DOPC   GL225504  22.229  17.294  15.442
 2187DOPC   C1A25505  22.699  17.694  15.342
 2187DOPC   D2A25506  22.459  17.604  15.092
 2187DOPC   C3A25507  22.469  17.804  14.622
 2187DOPC   C4A25508  22.459  18.214  14.422
 2187DOPC   C1B25509  22.339  17.144  15.032
 2187DOPC   D2B25510  22.399  17.214  14.662
 2187DOPC   C3B25511  22.389  16.914  14.392
 2187DOPC   C4B25512  22.429  16.984  13.912
 2188DOPC   NC325513  10.439  24.191  15.892
 2188DOPC   PO425514  10.859  24.291  15.612
 2188DOPC   GL125515  10.859  24.261  15.172
 2188DOPC   GL225516  10.589  24.271  14.952
 2188DOPC   C1A25517  10.939  23.961  14.892
 2188DOPC   D2A25518  11.129  23.941  14.522
 2188DOPC   C3A25519  11.139  23.791  14.102
 2188DOPC   C4A25520  11.089  23.511  13.672
 2188DOPC   C1B25521  10.889  24.361  14.632
 2188DOPC   D2B25522  10.919  24.671  14.242
 2188DOPC   C3B25523  11.119  24.591  13.812
 2188DOPC   C4B25524  11.439  24.801  13.562
 2189DOPC   NC325525  10.559  20.364  10.912
 2189DOPC   PO425526  10.889  20.134  10.832
 2189DOPC   GL125527  11.099  19.994  11.122
 2189DOPC   GL225528  10.949  20.174  11.362
 2189DOPC   C1A25529  10.829  19.754  11.492
 2189DOPC   D2A25530  10.959  19.794  11.842
 2189DOPC   C3A25531  10.659  19.724  12.212
 2189DOPC   C4A25532  10.659  19.904  12.662
 2189DOPC   C1B25533  11.049  20.254  11.792
 2189DOPC   D2B25534  11.259  20.174  12.112
 2189DOPC   C3B25535  11.059  20.044  12.392
 2189DOPC   C4B25536  11.299  19.954  12.822
 2190DOPC   NC325537  15.669  18.214  15.242
 2190DOPC   PO425538  15.459  18.584  15.182
 2190DOPC   GL125539  15.579  18.584  14.792
 2190DOPC   GL225540  15.469  18.824  14.582
 2190DOPC   C1A25541  15.909  18.404  14.472
 2190DOPC   D2A25542  16.289  18.394  14.232
 2190DOPC   C3A25543  16.239  18.094  13.912
 2190DOPC   C4A25544  16.359  18.284  13.422
 2190DOPC   C1B25545  15.639  18.694  14.142
 2190DOPC   D2B25546  15.869  18.434  13.912
 2190DOPC   C3B25547  15.859  18.564  13.502
 2190DOPC   C4B25548  16.029  18.444  13.122
 2191DOPC   NC325549   8.529   4.354  15.182
 2191DOPC   PO425550   8.469   4.264  14.752
 2191DOPC   GL125551   8.549   4.104  14.322
 2191DOPC   GL225552   8.479   3.704  14.172
 2191DOPC   C1A25553   8.629   4.074  13.842
 2191DOPC   D2A25554   8.639   3.934  13.362
 2191DOPC   C3A25555   9.049   3.744  13.172
 2191DOPC   C4A25556   9.259   3.924  12.942
 2191DOPC   C1B25557   8.349   3.694  13.752
 2191DOPC   D2B25558   8.089   3.944  13.442
 2191DOPC   C3B25559   7.709   4.084  13.452
 2191DOPC   C4B25560   7.359   4.254  13.292
 2192DOPC   NC325561  12.519   9.184  14.552
 2192DOPC   PO425562  12.669   9.224  14.082
 2192DOPC   GL125563  12.949   9.024  13.742
 2192DOPC   GL225564  13.009   8.804  13.952
 2192DOPC   C1A25565  13.029   9.264  13.392
 2192DOPC   D2A25566  12.949   9.704  13.232
 2192DOPC   C3A25567  12.559   9.734  13.362
 2192DOPC   C4A25568  12.319  10.074  13.142
 2192DOPC   C1B25569  13.129   8.724  13.422
 2192DOPC   D2B25570  13.239   8.934  13.022
 2192DOPC   C3B25571  13.239   8.654  12.642
 2192DOPC   C4B25572  13.119   8.534  12.202
 2193DOPC   NC325573   7.669   5.344  14.432
 2193DOPC   PO425574   7.849   4.854  14.302
 2193DOPC   GL125575   7.879   4.754  13.852
 2193DOPC   GL225576   8.239   4.794  13.882
 2193DOPC   C1A25577   7.949   4.604  13.432
 2193DOPC   D2A25578   7.959   4.324  13.062
 2193DOPC   C3A25579   7.579   4.164  12.762
 2193DOPC   C4A25580   7.439   3.664  12.682
 2193DOPC   C1B25581   8.229   5.024  13.572
 2193DOPC   D2B25582   7.799   5.174  13.502
 2193DOPC   C3B25583   7.619   5.494  13.712
 2193DOPC   C4B25584   7.269   5.704  13.682
 2194DOPC   NC325585  19.709  14.614  15.722
 2194DOPC   PO425586  20.109  14.714  15.802
 2194DOPC   GL125587  20.339  14.764  15.502
 2194DOPC   GL225588  20.059  14.654  15.342
 2194DOPC   C1A25589  20.729  14.744  15.302
 2194DOPC   D2A25590  20.909  14.814  14.952
 2194DOPC   C3A25591  20.639  15.084  14.922
 2194DOPC   C4A25592  20.219  15.134  15.152
 2194DOPC   C1B25593  20.119  14.474  14.972
 2194DOPC   D2B25594  20.069  14.394  14.612
 2194DOPC   C3B25595  20.249  14.504  14.232
 2194DOPC   C4B25596  20.379  14.324  13.852
 2195DOPC   NC325597  23.139  12.944  15.392
 2195DOPC   PO425598  23.379  12.534  15.412
 2195DOPC   GL125599  23.439  12.634  15.042
 2195DOPC   GL225600  23.409  12.894  14.922
 2195DOPC   C1A25601  23.609  12.464  14.672
 2195DOPC   D2A25602  23.319  12.314  14.492
 2195DOPC   C3A25603  23.539  12.194  14.112
 2195DOPC   C4A25604  23.789  11.934  13.952
 2195DOPC   C1B25605  23.399  12.834  14.472
 2195DOPC   D2B25606  23.369  12.694  14.022
 2195DOPC   C3B25607  23.769  12.654  13.722
 2195DOPC   C4B25608  24.109  12.414  13.812
 2196DOPC   NC325609   1.649   6.694  10.742
 2196DOPC   PO425610   1.679   6.804  11.212
 2196DOPC   GL125611   1.349   6.844  11.562
 2196DOPC   GL225612   1.149   6.654  11.722
 2196DOPC   C1A25613   1.099   7.204  11.772
 2196DOPC   D2A25614   0.879   7.354  12.092
 2196DOPC   C3A25615   1.049   7.594  12.262
 2196DOPC   C4A25616   1.269   7.734  12.552
 2196DOPC   C1B25617   0.949   6.744  12.192
 2196DOPC   D2B25618   0.739   6.544  12.562
 2196DOPC   C3B25619   0.559   6.604  12.962
 2196DOPC   C4B25620   0.399   6.504  13.302
 2197DOPC   NC325621  17.869  13.864  14.822
 2197DOPC   PO425622  17.419  13.804  14.872
 2197DOPC   GL125623  17.469  13.824  14.402
 2197DOPC   GL225624  17.839  13.674  14.382
 2197DOPC   C1A25625  17.699  14.194  14.142
 2197DOPC   D2A25626  17.899  14.324  13.652
 2197DOPC   C3A25627  17.589  14.374  13.322
 2197DOPC   C4A25628  17.119  14.354  13.382
 2197DOPC   C1B25629  17.679  13.644  13.992
 2197DOPC   D2B25630  17.739  13.474  13.592
 2197DOPC   C3B25631  18.209  13.484  13.512
 2197DOPC   C4B25632  18.529  13.524  13.592
 2198DOPC   NC325633  10.399  14.384  14.752
 2198DOPC   PO425634  10.229  14.004  14.752
 2198DOPC   GL125635  10.019  14.134  14.352
 2198DOPC   GL225636   9.749  14.394  14.542
 2198DOPC   C1A25637  10.169  14.464  14.032
 2198DOPC   D2A25638  10.049  14.804  13.682
 2198DOPC   C3A25639  10.129  14.784  13.212
 2198DOPC   C4A25640   9.999  14.984  12.802
 2198DOPC   C1B25641   9.339  14.584  14.352
 2198DOPC   D2B25642   9.269  14.894  14.082
 2198DOPC   C3B25643   9.519  15.034  13.812
 2198DOPC   C4B25644   9.469  15.404  13.542
 2199DOPC   NC325645  23.229  13.654  15.592
 2199DOPC   PO425646  22.849  13.304  15.662
 2199DOPC   GL125647  22.659  13.464  15.212
 2199DOPC   GL225648  22.749  13.674  15.332
 2199DOPC   C1A25649  22.679  13.424  14.772
 2199DOPC   D2A25650  22.649  13.384  14.342
 2199DOPC   C3A25651  22.589  12.954  14.282
 2199DOPC   C4A25652  22.499  12.514  14.132
 2199DOPC   C1B25653  22.949  13.834  15.062
 2199DOPC   D2B25654  23.249  13.684  14.772
 2199DOPC   C3B25655  23.109  13.734  14.352
 2199DOPC   C4B25656  22.799  13.964  14.182
 2200DOPC   NC325657  13.559   3.544  11.132
 2200DOPC   PO425658  13.819   3.894  10.982
 2200DOPC   GL125659  13.679   4.024  11.322
 2200DOPC   GL225660  13.599   3.794  11.542
 2200DOPC   C1A25661  13.639   4.304  11.602
 2200DOPC   D2A25662  13.769   4.694  11.742
 2200DOPC   C3A25663  13.589   4.934  12.192
 2200DOPC   C4A25664  13.399   4.884  12.482
 2200DOPC   C1B25665  13.319   3.494  11.722
 2200DOPC   D2B25666  13.019   3.184  11.892
 2200DOPC   C3B25667  13.069   3.044  12.202
 2200DOPC   C4B25668  13.129   2.804  12.612
 2201DOPC   NC325669  11.069   3.434  10.062
 2201DOPC   PO425670  10.859   3.274  10.352
 2201DOPC   GL125671  10.979   3.484  10.752
 2201DOPC   GL225672  10.839   3.644  11.002
 2201DOPC   C1A25673  10.989   3.234  11.182
 2201DOPC   D2A25674  11.369   3.304  11.502
 2201DOPC   C3A25675  11.419   3.224  11.962
 2201DOPC   C4A25676  11.649   2.994  12.162
 2201DOPC   C1B25677  11.099   3.744  11.292
 2201DOPC   D2B25678  11.209   3.844  11.692
 2201DOPC   C3B25679  10.879   3.924  11.962
 2201DOPC   C4B25680  10.439   3.824  11.862
 2202DOPC   NC325681   2.839  24.181  15.312
 2202DOPC   PO425682   3.179  23.961  15.502
 2202DOPC   GL125683   3.079  23.741  15.112
 2202DOPC   GL225684   2.999  24.031  14.882
 2202DOPC   C1A25685   2.779  23.591  14.922
 2202DOPC   D2A25686   2.419  23.751  14.662
 2202DOPC   C3A25687   2.509  24.171  14.482
 2202DOPC   C4A25688   2.679  24.201  14.142
 2202DOPC   C1B25689   3.389  24.091  14.702
 2202DOPC   D2B25690   3.479  23.861  14.272
 2202DOPC   C3B25691   3.819  24.071  13.952
 2202DOPC   C4B25692   4.179  24.381  14.002
 2203DOPC   NC325693   1.689  21.631  11.632
 2203DOPC   PO425694   1.959  21.721  12.022
 2203DOPC   GL125695   1.779  21.931  12.362
 2203DOPC   GL225696   1.929  22.221  12.532
 2203DOPC   C1A25697   1.579  21.901  12.782
 2203DOPC   D2A25698   1.259  22.171  12.972
 2203DOPC   C3A25699   1.319  22.321  13.422
 2203DOPC   C4A25700   1.569  22.181  13.742
 2203DOPC   C1B25701   1.939  22.301  13.002
 2203DOPC   D2B25702   1.709  22.081  13.282
 2203DOPC   C3B25703   1.489  21.791  13.232
 2203DOPC   C4B25704   1.489  21.381  13.072
 2204DOPC   NC325705  25.409   0.114  16.252
 2204DOPC   PO425706  25.249   0.434  15.942
 2204DOPC   GL125707  25.129   0.404  15.572
 2204DOPC   GL225708  24.859   0.424  15.372
 2204DOPC   C1A25709  25.349   0.344  15.122
 2204DOPC   D2A25710  25.599   0.034  14.912
 2204DOPC   C3A25711  25.529  -0.186  14.592
 2204DOPC   C4A25712  25.319  -0.436  14.442
 2204DOPC   C1B25713  24.899   0.454  14.872
 2204DOPC   D2B25714  24.989   0.464  14.382
 2204DOPC   C3B25715  25.179   0.134  14.082
 2204DOPC   C4B25716  25.149  -0.286  13.732
 2205DOPC   NC325717   9.459  19.314  15.232
 2205DOPC   PO425718   9.849  19.254  15.062
 2205DOPC   GL125719   9.939  19.224  14.622
 2205DOPC   GL225720  10.269  19.114  14.552
 2205DOPC   C1A25721   9.719  19.194  14.312
 2205DOPC   D2A25722   9.439  19.264  13.922
 2205DOPC   C3A25723   9.199  19.604  13.742
 2205DOPC   C4A25724   8.919  19.984  13.662
 2205DOPC   C1B25725  10.199  19.364  14.272
 2205DOPC   D2B25726   9.999  19.704  14.192
 2205DOPC   C3B25727   9.529  19.664  14.302
 2205DOPC   C4B25728   9.239  19.364  14.402
 2206DOPC   NC325729  11.629   4.714  10.432
 2206DOPC   PO425730  11.229   4.644  10.642
 2206DOPC   GL125731  11.209   4.914  11.052
 2206DOPC   GL225732  11.509   4.854  11.112
 2206DOPC   C1A25733  11.249   4.984  11.472
 2206DOPC   D2A25734  11.169   5.204  11.792
 2206DOPC   C3A25735  10.699   5.194  11.802
 2206DOPC   C4A25736  10.519   5.124  12.242
 2206DOPC   C1B25737  11.639   5.204  11.352
 2206DOPC   D2B25738  11.709   5.464  11.682
 2206DOPC   C3B25739  11.759   5.274  12.012
 2206DOPC   C4B25740  11.929   5.204  12.422
 2207DOPC   NC325741   7.009  11.624  15.302
 2207DOPC   PO425742   7.019  11.184  15.092
 2207DOPC   GL125743   6.839  10.974  14.702
 2207DOPC   GL225744   6.669  11.264  14.572
 2207DOPC   C1A25745   6.729  10.904  14.192
 2207DOPC   D2A25746   6.679  10.924  13.702
 2207DOPC   C3A25747   6.389  11.314  13.542
 2207DOPC   C4A25748   6.069  11.504  13.272
 2207DOPC   C1B25749   6.269  11.004  14.372
 2207DOPC   D2B25750   6.179  10.974  13.912
 2207DOPC   C3B25751   5.839  11.134  13.582
 2207DOPC   C4B25752   5.649  11.544  13.462
 2208DOPC   NC325753   6.639  19.964  15.802
 2208DOPC   PO425754   6.169  19.974  15.812
 2208DOPC   GL125755   6.079  19.994  15.322
 2208DOPC   GL225756   5.749  19.914  15.322
 2208DOPC   C1A25757   5.969  20.074  14.832
 2208DOPC   D2A25758   5.849  20.404  14.692
 2208DOPC   C3A25759   5.679  20.454  14.282
 2208DOPC   C4A25760   5.319  20.274  14.042
 2208DOPC   C1B25761   6.109  19.614  15.042
 2208DOPC   D2B25762   6.179  19.634  14.642
 2208DOPC   C3B25763   6.269  19.394  14.382
 2208DOPC   C4B25764   6.109  19.044  14.242
 2209DOPC   NC325765  18.479   1.834  15.332
 2209DOPC   PO425766  18.569   2.184  15.492
 2209DOPC   GL125767  18.849   2.144  15.082
 2209DOPC   GL225768  18.999   1.854  15.022
 2209DOPC   C1A25769  19.039   2.254  14.632
 2209DOPC   D2A25770  19.099   2.324  14.172
 2209DOPC   C3A25771  19.419   2.104  14.072
 2209DOPC   C4A25772  19.719   1.774  14.242
 2209DOPC   C1B25773  18.869   1.674  14.622
 2209DOPC   D2B25774  18.749   1.424  14.352
 2209DOPC   C3B25775  18.909   1.034  14.332
 2209DOPC   C4B25776  18.739   0.684  14.062
 2210DOPC   NC325777  24.949  16.374  12.252
 2210DOPC   PO425778  24.899  15.994  12.352
 2210DOPC   GL125779  24.639  15.704  12.562
 2210DOPC   GL225780  24.759  15.574  12.802
 2210DOPC   C1A25781  24.249  15.714  12.762
 2210DOPC   D2A25782  23.919  16.014  12.702
 2210DOPC   C3A25783  23.609  16.234  13.102
 2210DOPC   C4A25784  23.459  16.144  13.482
 2210DOPC   C1B25785  24.619  15.704  13.222
 2210DOPC   D2B25786  24.589  16.154  13.442
 2210DOPC   C3B25787  24.639  16.534  13.652
 2210DOPC   C4B25788  24.339  16.874  13.822
 2211DOPC   NC325789  10.609   8.024  10.772
 2211DOPC   PO425790  10.489   8.384  10.482
 2211DOPC   GL125791  10.209   8.374  10.882
 2211DOPC   GL225792   9.849   8.574  10.902
 2211DOPC   C1A25793  10.219   8.744  11.172
 2211DOPC   D2A25794  10.359   9.074  11.532
 2211DOPC   C3A25795  10.589   8.894  11.912
 2211DOPC   C4A25796  10.999   8.734  12.022
 2211DOPC   C1B25797   9.859   8.444  11.342
 2211DOPC   D2B25798  10.029   8.674  11.772
 2211DOPC   C3B25799  10.019   8.534  12.152
 2211DOPC   C4B25800   9.879   8.434  12.542
 2212DOPC   NC325801  25.966  22.211  16.002
 2212DOPC   PO425802  25.906  22.141  15.592
 2212DOPC   GL125803  25.656  21.971  15.372
 2212DOPC   GL225804  25.479  22.301  15.302
 2212DOPC   C1A25805  25.329  21.781  15.042
 2212DOPC   D2A25806  25.259  21.901  14.592
 2212DOPC   C3A25807  24.969  21.831  14.182
 2212DOPC   C4A25808  24.619  21.951  13.992
 2212DOPC   C1B25809  25.786  22.451  14.962
 2212DOPC   D2B25810  25.946  22.751  14.712
 2212DOPC   C3B25811  25.786  22.911  14.372
 2212DOPC   C4B25812  25.986  23.201  14.052
 2213DOPC   NC325813  22.869  15.434  15.482
 2213DOPC   PO425814  22.449  15.534  15.662
 2213DOPC   GL125815  22.399  15.554  15.222
 2213DOPC   GL225816  22.629  15.424  15.002
 2213DOPC   C1A25817  22.219  15.744  14.862
 2213DOPC   D2A25818  21.769  15.954  14.612
 2213DOPC   C3A25819  21.579  15.834  14.192
 2213DOPC   C4A25820  21.669  15.654  13.792
 2213DOPC   C1B25821  22.899  15.344  14.732
 2213DOPC   D2B25822  23.079  15.184  14.372
 2213DOPC   C3B25823  23.289  15.344  14.082
 2213DOPC   C4B25824  23.699  15.254  13.902
 2214DOPC   NC325825   5.529  13.954  10.832
 2214DOPC   PO425826   5.929  13.914  11.132
 2214DOPC   GL125827   5.959  13.884  11.532
 2214DOPC   GL225828   5.669  13.934  11.752
 2214DOPC   C1A25829   6.179  13.994  11.952
 2214DOPC   D2A25830   6.369  14.024  12.352
 2214DOPC   C3A25831   6.099  14.064  12.792
 2214DOPC   C4A25832   5.839  14.174  13.102
 2214DOPC   C1B25833   5.699  13.854  12.132
 2214DOPC   D2B25834   5.889  13.674  12.552
 2214DOPC   C3B25835   5.759  13.684  12.972
 2214DOPC   C4B25836   5.799  13.754  13.402
 2215DOPC   NC325837   4.969  20.664  11.622
 2215DOPC   PO425838   4.569  20.824  11.632
 2215DOPC   GL125839   4.579  20.744  12.062
 2215DOPC   GL225840   5.019  20.604  12.152
 2215DOPC   C1A25841   4.409  20.714  12.532
 2215DOPC   D2A25842   4.099  20.594  12.952
 2215DOPC   C3A25843   3.969  20.624  13.392
 2215DOPC   C4A25844   3.599  20.694  13.582
 2215DOPC   C1B25845   5.359  20.764  12.462
 2215DOPC   D2B25846   5.769  20.904  12.462
 2215DOPC   C3B25847   5.929  20.794  12.962
 2215DOPC   C4B25848   5.999  20.674  13.332
 2216DOPC   NC325849   0.329  16.094  12.152
 2216DOPC   PO425850   0.449  16.454  12.392
 2216DOPC   GL125851   0.369  16.034  12.652
 2216DOPC   GL225852   0.089  15.994  12.732
 2216DOPC   C1A25853   0.669  15.714  12.752
 2216DOPC   D2A25854   0.999  15.514  12.862
 2216DOPC   C3A25855   1.129  15.294  13.222
 2216DOPC   C4A25856   1.109  15.524  13.652
 2216DOPC   C1B25857   0.239  15.784  13.082
 2216DOPC   D2B25858   0.219  15.664  13.552
 2216DOPC   C3B25859   0.209  15.264  13.702
 2216DOPC   C4B25860   0.059  15.094  14.112
 2217DOPC   NC325861   9.669   6.174  14.672
 2217DOPC   PO425862   9.299   5.954  14.612
 2217DOPC   GL125863   9.479   5.864  14.172
 2217DOPC   GL225864   9.159   5.884  14.132
 2217DOPC   C1A25865   9.429   5.784  13.732
 2217DOPC   D2A25866   9.379   5.944  13.302
 2217DOPC   C3A25867   9.479   6.224  12.922
 2217DOPC   C4A25868   9.769   6.594  12.782
 2217DOPC   C1B25869   9.459   6.214  13.842
 2217DOPC   D2B25870   9.529   6.414  13.412
 2217DOPC   C3B25871   9.769   6.784  13.262
 2217DOPC   C4B25872  10.189   6.864  13.182
 2218DOPC   NC325873   2.549   7.034  15.012
 2218DOPC   PO425874   2.489   6.714  15.362
 2218DOPC   GL125875   2.729   6.544  15.002
 2218DOPC   GL225876   2.519   6.554  14.752
 2218DOPC   C1A25877   2.979   6.484  14.602
 2218DOPC   D2A25878   3.339   6.254  14.452
 2218DOPC   C3A25879   3.529   6.434  14.092
 2218DOPC   C4A25880   3.409   6.554  13.682
 2218DOPC   C1B25881   2.559   6.424  14.302
 2218DOPC   D2B25882   2.549   6.604  13.912
 2218DOPC   C3B25883   2.219   6.664  13.682
 2218DOPC   C4B25884   2.059   6.444  13.382
 2219DOPC   NC325885  15.869   1.554  11.272
 2219DOPC   PO425886  16.089   1.714  11.542
 2219DOPC   GL125887  16.059   1.924  11.932
 2219DOPC   GL225888  15.869   2.124  11.992
 2219DOPC   C1A25889  16.269   1.894  12.282
 2219DOPC   D2A25890  16.439   1.754  12.502
 2219DOPC   C3A25891  16.579   1.924  12.702
 2219DOPC   C4A25892  16.549   2.354  12.812
 2219DOPC   C1B25893  15.519   2.474  12.142
 2219DOPC   D2B25894  15.259   2.394  12.512
 2219DOPC   C3B25895  15.539   2.654  12.932
 2219DOPC   C4B25896  15.789   2.954  13.222
 2220DOPC   NC325897  26.376  19.564  11.812
 2220DOPC   PO425898  25.886  19.664  11.962
 2220DOPC   GL125899  25.646  19.634  12.282
 2220DOPC   GL225900  25.666  19.554  12.562
 2220DOPC   C1A25901  25.389  19.954  12.482
 2220DOPC   D2A25902  25.079  19.984  12.872
 2220DOPC   C3A25903  25.239  19.824  13.172
 2220DOPC   C4A25904  25.039  19.464  13.332
 2220DOPC   C1B25905  25.686  19.854  12.932
 2220DOPC   D2B25906  25.846  19.974  13.242
 2220DOPC   C3B25907  25.529  19.964  13.592
 2220DOPC   C4B25908  25.179  19.794  13.662
 2221DOPC   NC325909   2.839  25.601  15.792
 2221DOPC   PO425910   2.969  25.391  15.352
 2221DOPC   GL125911   2.949  25.441  14.962
 2221DOPC   GL225912   2.669  25.391  14.782
 2221DOPC   C1A25913   3.119  25.731  14.642
 2221DOPC   D2A25914   3.059  26.041  14.362
 2221DOPC   C3A25915   2.729  26.161  14.032
 2221DOPC   C4A25916   2.559  26.071  13.582
 2221DOPC   C1B25917   2.609  25.201  14.352
 2221DOPC   D2B25918   2.629  25.191  13.842
 2221DOPC   C3B25919   3.019  25.091  13.772
 2221DOPC   C4B25920   3.399  24.951  13.892
 2222DOPC   NC325921  18.569  24.901  16.162
 2222DOPC   PO425922  18.629  25.331  16.052
 2222DOPC   GL125923  18.659  25.251  15.652
 2222DOPC   GL225924  18.579  24.921  15.692
 2222DOPC   C1A25925  18.539  25.391  15.192
 2222DOPC   D2A25926  18.439  25.251  14.862
 2222DOPC   C3A25927  18.519  24.851  14.802
 2222DOPC   C4A25928  18.819  24.581  14.772
 2222DOPC   C1B25929  18.579  24.731  15.272
 2222DOPC   D2B25930  18.799  24.311  15.212
 2222DOPC   C3B25931  18.699  24.061  14.862
 2222DOPC   C4B25932  18.619  24.011  14.422
 2223DOPC   NC325933  20.399  11.994  11.672
 2223DOPC   PO425934  20.309  11.584  11.542
 2223DOPC   GL125935  20.009  11.634  11.992
 2223DOPC   GL225936  19.659  11.464  11.872
 2223DOPC   C1A25937  19.909  11.754  12.392
 2223DOPC   D2A25938  19.879  11.744  12.852
 2223DOPC   C3A25939  19.989  11.274  12.912
 2223DOPC   C4A25940  20.069  10.854  12.892
 2223DOPC   C1B25941  19.409  11.484  12.362
 2223DOPC   D2B25942  19.419  11.154  12.602
 2223DOPC   C3B25943  19.129  11.124  12.912
 2223DOPC   C4B25944  18.729  10.894  13.002
 2224DOPC   NC325945  10.049   8.504  14.152
 2224DOPC   PO425946  10.199   8.984  14.142
 2224DOPC   GL125947  10.529   8.934  13.802
 2224DOPC   GL225948  10.559   8.614  13.812
 2224DOPC   C1A25949  10.599   8.794  13.342
 2224DOPC   D2A25950  10.679   8.684  12.882
 2224DOPC   C3A25951  10.869   8.984  12.612
 2224DOPC   C4A25952  11.329   8.874  12.342
 2224DOPC   C1B25953  10.239   8.524  13.532
 2224DOPC   D2B25954  10.219   8.594  12.962
 2224DOPC   C3B25955  10.379   8.474  12.572
 2224DOPC   C4B25956  10.749   8.484  12.392
 2225DOPC   NC325957   8.279  21.701  11.552
 2225DOPC   PO425958   8.439  22.031  11.642
 2225DOPC   GL125959   8.229  22.211  12.082
 2225DOPC   GL225960   8.619  22.281  12.112
 2225DOPC   C1A25961   8.159  22.031  12.452
 2225DOPC   D2A25962   8.299  21.851  12.912
 2225DOPC   C3A25963   8.369  21.344  12.942
 2225DOPC   C4A25964   8.419  20.954  13.342
 2225DOPC   C1B25965   8.849  22.571  12.462
 2225DOPC   D2B25966   9.239  22.551  12.552
 2225DOPC   C3B25967   9.569  22.821  12.672
 2225DOPC   C4B25968   9.629  22.841  13.062
 2226DOPC   NC325969  17.319  14.664  11.432
 2226DOPC   PO425970  17.769  14.864  11.572
 2226DOPC   GL125971  17.739  14.764  11.972
 2226DOPC   GL225972  18.009  15.004  12.142
 2226DOPC   C1A25973  17.449  14.564  12.222
 2226DOPC   D2A25974  17.449  14.564  12.732
 2226DOPC   C3A25975  17.739  14.744  13.032
 2226DOPC   C4A25976  17.809  14.914  13.482
 2226DOPC   C1B25977  17.949  14.664  12.492
 2226DOPC   D2B25978  17.959  14.234  12.832
 2226DOPC   C3B25979  17.459  14.114  12.932
 2226DOPC   C4B25980  17.139  13.944  13.102
 2227DOPC   NC325981  20.079   7.254  11.732
 2227DOPC   PO425982  20.339   6.944  11.702
 2227DOPC   GL125983  20.279   6.914  12.142
 2227DOPC   GL225984  19.979   6.854  12.212
 2227DOPC   C1A25985  20.639   6.854  12.412
 2227DOPC   D2A25986  20.899   6.694  12.872
 2227DOPC   C3A25987  20.799   6.864  13.212
 2227DOPC   C4A25988  20.569   6.784  13.542
 2227DOPC   C1B25989  19.999   6.714  12.672
 2227DOPC   D2B25990  20.259   6.714  13.082
 2227DOPC   C3B25991  20.199   6.404  13.472
 2227DOPC   C4B25992  20.219   6.194  13.772
 2228DOPC   NC325993  25.179  24.121  16.512
 2228DOPC   PO425994  25.069  23.801  16.332
 2228DOPC   GL125995  24.949  23.831  15.862
 2228DOPC   GL225996  24.979  23.631  15.702
 2228DOPC   C1A25997  24.739  24.101  15.482
 2228DOPC   D2A25998  24.439  24.121  15.202
 2228DOPC   C3A25999  24.349  23.801  14.952
 2228DOPC   C4A26000  24.309  23.621  14.562
 2228DOPC   C1B26001  24.739  23.571  15.312
 2228DOPC   D2B26002  24.809  23.641  14.962
 2228DOPC   C3B26003  24.679  23.371  14.662
 2228DOPC   C4B26004  24.849  23.231  14.302
 2229DOPC   NC326005   2.369   0.784  15.742
 2229DOPC   PO426006   2.669   0.474  15.512
 2229DOPC   GL126007   2.609   0.234  15.042
 2229DOPC   GL226008   2.729   0.374  14.832
 2229DOPC   C1A26009   2.209   0.124  14.702
 2229DOPC   D2A26010   1.769   0.254  14.582
 2229DOPC   C3A26011   1.709   0.574  14.252
 2229DOPC   C4A26012   1.629   0.724  13.832
 2229DOPC   C1B26013   2.659   0.124  14.422
 2229DOPC   D2B26014   2.689   0.064  13.962
 2229DOPC   C3B26015   2.289  -0.006  13.792
 2229DOPC   C4B26016   2.049  -0.246  13.592
 2230DOPC   NC326017  20.569  18.284  11.922
 2230DOPC   PO426018  20.449  18.404  12.342
 2230DOPC   GL126019  20.509  18.674  12.702
 2230DOPC   GL226020  20.799  18.704  12.662
 2230DOPC   C1A26021  20.439  18.694  13.022
 2230DOPC   D2A26022  20.559  18.434  13.402
 2230DOPC   C3A26023  20.919  18.314  13.512
 2230DOPC   C4A26024  21.149  18.214  13.822
 2230DOPC   C1B26025  20.879  18.894  13.102
 2230DOPC   D2B26026  21.009  18.814  13.592
 2230DOPC   C3B26027  20.799  18.594  13.872
 2230DOPC   C4B26028  20.859  18.144  14.232
 2231DOPC   NC326029   9.549  23.821  15.272
 2231DOPC   PO426030   9.289  24.181  15.292
 2231DOPC   GL126031   9.279  24.061  14.872
 2231DOPC   GL226032   9.109  24.111  14.712
 2231DOPC   C1A26033   9.229  23.601  14.602
 2231DOPC   D2A26034   9.339  23.351  14.212
 2231DOPC   C3A26035   9.379  23.311  13.752
 2231DOPC   C4A26036   9.679  23.021  13.552
 2231DOPC   C1B26037   8.889  24.071  14.292
 2231DOPC   D2B26038   8.619  23.901  13.972
 2231DOPC   C3B26039   8.329  24.011  13.702
 2231DOPC   C4B26040   8.059  24.131  13.342
 2232DOPC   NC326041   2.999  17.084  15.492
 2232DOPC   PO426042   2.649  17.444  15.472
 2232DOPC   GL126043   2.829  17.774  15.292
 2232DOPC   GL226044   2.519  17.774  15.112
 2232DOPC   C1A26045   3.049  17.844  14.912
 2232DOPC   D2A26046   3.039  17.674  14.452
 2232DOPC   C3A26047   3.009  17.234  14.562
 2232DOPC   C4A26048   2.939  16.764  14.582
 2232DOPC   C1B26049   2.599  17.874  14.762
 2232DOPC   D2B26050   2.669  17.964  14.332
 2232DOPC   C3B26051   2.909  18.154  14.092
 2232DOPC   C4B26052   3.299  18.484  14.112
 2233DOPC   NC326053  23.089  18.134  11.902
 2233DOPC   PO426054  23.049  17.764  12.222
 2233DOPC   GL126055  23.139  17.464  12.612
 2233DOPC   GL226056  23.099  17.734  12.922
 2233DOPC   C1A26057  23.429  17.304  12.902
 2233DOPC   D2A26058  23.499  17.274  13.392
 2233DOPC   C3A26059  23.589  17.054  13.672
 2233DOPC   C4A26060  23.719  16.744  13.952
 2233DOPC   C1B26061  23.499  17.864  13.112
 2233DOPC   D2B26062  23.739  17.714  13.472
 2233DOPC   C3B26063  23.729  18.084  13.662
 2233DOPC   C4B26064  23.409  18.434  13.892
 2234DOPC   NC326065  21.539  15.664  15.662
 2234DOPC   PO426066  21.649  15.984  15.952
 2234DOPC   GL126067  21.699  16.164  15.672
 2234DOPC   GL226068  21.609  16.174  15.352
 2234DOPC   C1A26069  22.059  16.364  15.592
 2234DOPC   D2A26070  22.379  16.354  15.412
 2234DOPC   C3A26071  22.269  16.264  15.072
 2234DOPC   C4A26072  22.309  16.144  14.642
 2234DOPC   C1B26073  21.749  16.344  14.952
 2234DOPC   D2B26074  21.949  16.574  14.632
 2234DOPC   C3B26075  22.369  16.644  14.802
 2234DOPC   C4B26076  22.779  16.854  14.822
 2235DOPC   NC326077  10.759  18.394  14.782
 2235DOPC   PO426078  10.919  18.064  14.582
 2235DOPC   GL126079  10.609  17.934  14.292
 2235DOPC   GL226080  10.619  17.644  14.382
 2235DOPC   C1A26081  10.419  18.034  13.892
 2235DOPC   D2A26082  10.409  17.854  13.542
 2235DOPC   C3A26083  10.229  18.174  13.352
 2235DOPC   C4A26084   9.929  18.504  13.152
 2235DOPC   C1B26085  10.749  17.474  14.002
 2235DOPC   D2B26086  10.719  17.454  13.492
 2235DOPC   C3B26087  11.109  17.324  13.352
 2235DOPC   C4B26088  11.169  17.204  12.982
 2236DOPC   NC326089   3.439  13.924  15.192
 2236DOPC   PO426090   3.009  14.044  15.092
 2236DOPC   GL126091   3.189  13.974  14.752
 2236DOPC   GL226092   3.419  13.934  14.692
 2236DOPC   C1A26093   3.069  13.824  14.342
 2236DOPC   D2A26094   3.079  13.444  14.062
 2236DOPC   C3A26095   2.959  13.354  13.752
 2236DOPC   C4A26096   2.999  13.454  13.352
 2236DOPC   C1B26097   3.549  14.084  14.322
 2236DOPC   D2B26098   3.569  14.044  13.882
 2236DOPC   C3B26099   3.249  13.814  13.742
 2236DOPC   C4B26100   2.799  13.834  13.842
 2237DOPC   NC326101  16.569   3.914  15.402
 2237DOPC   PO426102  16.169   3.784  15.292
 2237DOPC   GL126103  16.249   3.864  14.862
 2237DOPC   GL226104  15.919   3.764  14.602
 2237DOPC   C1A26105  16.499   3.644  14.552
 2237DOPC   D2A26106  16.869   3.434  14.242
 2237DOPC   C3A26107  17.249   3.264  14.312
 2237DOPC   C4A26108  17.629   3.014  14.372
 2237DOPC   C1B26109  16.019   3.864  14.252
 2237DOPC   D2B26110  16.019   4.044  13.852
 2237DOPC   C3B26111  16.399   3.854  13.562
 2237DOPC   C4B26112  16.649   3.714  13.302
 2238DOPC   NC326113  12.799  11.754  10.212
 2238DOPC   PO426114  13.099  11.624  10.402
 2238DOPC   GL126115  13.279  11.714  10.752
 2238DOPC   GL226116  13.349  12.084  10.892
 2238DOPC   C1A26117  13.499  11.534  11.122
 2238DOPC   D2A26118  13.439  11.424  11.552
 2238DOPC   C3A26119  13.719  11.164  11.592
 2238DOPC   C4A26120  14.029  10.774  11.472
 2238DOPC   C1B26121  13.199  12.274  11.232
 2238DOPC   D2B26122  12.899  12.264  11.542
 2238DOPC   C3B26123  13.009  11.814  11.832
 2238DOPC   C4B26124  13.389  11.584  12.052
 2239DOPC   NC326125  15.099  17.184  11.112
 2239DOPC   PO426126  15.409  17.074  11.442
 2239DOPC   GL126127  15.179  17.144  11.802
 2239DOPC   GL226128  15.159  16.904  12.092
 2239DOPC   C1A26129  14.799  17.264  12.072
 2239DOPC   D2A26130  14.389  17.104  12.272
 2239DOPC   C3A26131  14.139  17.434  12.422
 2239DOPC   C4A26132  13.629  17.394  12.452
 2239DOPC   C1B26133  15.069  16.944  12.482
 2239DOPC   D2B26134  15.419  17.064  12.762
 2239DOPC   C3B26135  15.249  17.414  13.102
 2239DOPC   C4B26136  14.959  17.624  13.292
 2240DOPC   NC326137  16.679   2.444  15.062
 2240DOPC   PO426138  16.769   1.964  15.182
 2240DOPC   GL126139  16.549   2.074  14.802
 2240DOPC   GL226140  16.339   1.894  14.612
 2240DOPC   C1A26141  16.569   2.394  14.462
 2240DOPC   D2A26142  16.519   2.524  14.032
 2240DOPC   C3A26143  16.549   2.524  13.672
 2240DOPC   C4A26144  16.599   2.364  13.292
 2240DOPC   C1B26145  15.949   1.714  14.492
 2240DOPC   D2B26146  15.739   1.364  14.252
 2240DOPC   C3B26147  15.959   0.994  14.002
 2240DOPC   C4B26148  16.069   0.664  13.812
 2241DOPC   NC326149  21.979   3.294  15.432
 2241DOPC   PO426150  21.539   3.284  15.492
 2241DOPC   GL126151  21.569   3.254  15.092
 2241DOPC   GL226152  21.419   2.964  14.902
 2241DOPC   C1A26153  21.719   3.554  14.742
 2241DOPC   D2A26154  21.949   3.734  14.322
 2241DOPC   C3A26155  22.399   3.864  14.242
 2241DOPC   C4A26156  22.669   3.924  13.912
 2241DOPC   C1B26157  21.209   2.774  14.602
 2241DOPC   D2B26158  20.719   2.874  14.482
 2241DOPC   C3B26159  20.679   3.074  14.032
 2241DOPC   C4B26160  20.679   3.374  13.722
 2242DOPC   NC326161   2.889  16.214  15.662
 2242DOPC   PO426162   2.629  16.634  15.522
 2242DOPC   GL126163   2.609  16.824  15.072
 2242DOPC   GL226164   2.529  16.604  14.822
 2242DOPC   C1A26165   2.539  17.084  14.662
 2242DOPC   D2A26166   2.519  17.494  14.372
 2242DOPC   C3A26167   2.679  17.344  14.012
 2242DOPC   C4A26168   2.699  17.094  13.592
 2242DOPC   C1B26169   2.429  16.564  14.372
 2242DOPC   D2B26170   2.679  16.364  14.062
 2242DOPC   C3B26171   2.369  16.114  13.762
 2242DOPC   C4B26172   2.289  15.704  13.742
 2243DOPC   NC326173   0.929  24.921  11.702
 2243DOPC   PO426174   1.339  25.001  11.992
 2243DOPC   GL126175   1.549  25.091  12.342
 2243DOPC   GL226176   1.279  25.061  12.482
 2243DOPC   C1A26177   1.829  25.051  12.702
 2243DOPC   D2A26178   1.729  24.941  13.052
 2243DOPC   C3A26179   1.969  24.891  13.372
 2243DOPC   C4A26180   2.189  24.631  13.612
 2243DOPC   C1B26181   1.139  25.001  12.862
 2243DOPC   D2B26182   1.259  25.111  13.262
 2243DOPC   C3B26183   1.249  24.851  13.582
 2243DOPC   C4B26184   1.039  24.531  13.762
 2244DOPC   NC326185  21.999  13.764  12.092
 2244DOPC   PO426186  22.439  13.684  12.132
 2244DOPC   GL126187  22.369  13.674  12.512
 2244DOPC   GL226188  22.059  13.794  12.632
 2244DOPC   C1A26189  22.429  13.734  12.922
 2244DOPC   D2A26190  22.809  13.804  13.172
 2244DOPC   C3A26191  22.929  13.764  13.572
 2244DOPC   C4A26192  22.869  13.534  13.942
 2244DOPC   C1B26193  21.919  13.604  12.912
 2244DOPC   D2B26194  21.669  13.524  13.182
 2244DOPC   C3B26195  21.629  13.444  13.622
 2244DOPC   C4B26196  21.399  13.714  13.642
 2245DOPC   NC326197   3.029   4.234  15.352
 2245DOPC   PO426198   2.749   3.904  15.322
 2245DOPC   GL126199   2.869   3.734  14.972
 2245DOPC   GL226200   3.039   3.454  15.062
 2245DOPC   C1A26201   2.939   3.844  14.532
 2245DOPC   D2A26202   3.109   3.954  14.112
 2245DOPC   C3A26203   2.869   3.774  13.852
 2245DOPC   C4A26204   2.609   3.784  13.432
 2245DOPC   C1B26205   3.179   3.304  14.632
 2245DOPC   D2B26206   3.349   3.004  14.302
 2245DOPC   C3B26207   3.539   3.104  13.972
 2245DOPC   C4B26208   3.649   3.374  13.552
 2246DOPC   NC326209   6.299  17.244  15.032
 2246DOPC   PO426210   6.299  16.984  15.302
 2246DOPC   GL126211   6.299  16.804  14.822
 2246DOPC   GL226212   6.619  16.714  14.682
 2246DOPC   C1A26213   6.209  16.794  14.382
 2246DOPC   D2A26214   6.459  16.584  14.192
 2246DOPC   C3A26215   6.229  16.654  13.812
 2246DOPC   C4A26216   5.779  16.634  13.712
 2246DOPC   C1B26217   7.009  16.344  14.672
 2246DOPC   D2B26218   7.469  16.304  14.552
 2246DOPC   C3B26219   7.559  16.214  14.002
 2246DOPC   C4B26220   7.809  15.984  13.692
 2247DOPC   NC326221   1.079  21.421  11.552
 2247DOPC   PO426222   1.219  21.861  11.522
 2247DOPC   GL126223   1.359  21.691  11.972
 2247DOPC   GL226224   1.579  21.431  12.072
 2247DOPC   C1A26225   1.309  21.771  12.402
 2247DOPC   D2A26226   1.099  21.671  12.842
 2247DOPC   C3A26227   1.119  21.531  13.342
 2247DOPC   C4A26228   1.159  21.441  13.782
 2247DOPC   C1B26229   1.559  21.381  12.572
 2247DOPC   D2B26230   1.869  21.254  12.812
 2247DOPC   C3B26231   1.959  21.204  13.232
 2247DOPC   C4B26232   2.059  20.824  13.542
 2248DOPC   NC326233   3.709  20.224  11.522
 2248DOPC   PO426234   3.539  20.624  11.632
 2248DOPC   GL126235   3.329  20.714  12.082
 2248DOPC   GL226236   3.509  20.964  12.322
 2248DOPC   C1A26237   3.399  20.524  12.562
 2248DOPC   D2A26238   3.279  20.144  12.772
 2248DOPC   C3A26239   3.419  19.954  13.052
 2248DOPC   C4A26240   3.539  19.744  13.392
 2248DOPC   C1B26241   3.639  21.334  12.612
 2248DOPC   D2B26242   3.709  21.421  13.032
 2248DOPC   C3B26243   3.339  21.471  13.342
 2248DOPC   C4B26244   2.969  21.631  13.282
 2249DOPC   NC326245  13.769  25.181  15.242
 2249DOPC   PO426246  13.609  25.611  15.012
 2249DOPC   GL126247  13.279  25.671  14.752
 2249DOPC   GL226248  12.909  25.631  14.852
 2249DOPC   C1A26249  13.109  25.841  14.422
 2249DOPC   D2A26250  13.079  25.761  13.912
 2249DOPC   C3A26251  13.059  25.511  13.502
 2249DOPC   C4A26252  13.369  25.231  13.292
 2249DOPC   C1B26253  13.069  25.261  14.542
 2249DOPC   D2B26254  13.229  25.311  14.042
 2249DOPC   C3B26255  13.479  25.411  13.792
 2249DOPC   C4B26256  13.569  25.721  13.372
 2250DOPC   NC326257  17.479  24.681  12.142
 2250DOPC   PO426258  17.879  24.341  12.192
 2250DOPC   GL126259  17.689  24.261  12.552
 2250DOPC   GL226260  17.379  24.451  12.582
 2250DOPC   C1A26261  17.599  24.201  13.052
 2250DOPC   D2A26262  17.669  24.351  13.412
 2250DOPC   C3A26263  17.719  24.051  13.672
 2250DOPC   C4A26264  17.679  23.761  14.062
 2250DOPC   C1B26265  17.089  24.181  12.762
 2250DOPC   D2B26266  17.199  23.911  13.122
 2250DOPC   C3B26267  17.239  24.061  13.492
 2250DOPC   C4B26268  17.099  24.141  13.932
 2251DOPC   NC326269  14.249  19.484  11.302
 2251DOPC   PO426270  14.099  19.084  11.392
 2251DOPC   GL126271  14.009  18.984  11.732
 2251DOPC   GL226272  14.189  19.144  12.062
 2251DOPC   C1A26273  13.839  18.754  12.022
 2251DOPC   D2A26274  13.519  18.504  12.252
 2251DOPC   C3A26275  13.669  18.174  12.602
 2251DOPC   C4A26276  13.839  17.814  12.682
 2251DOPC   C1B26277  14.309  19.054  12.522
 2251DOPC   D2B26278  14.199  19.084  12.862
 2251DOPC   C3B26279  13.789  19.194  13.002
 2251DOPC   C4B26280  13.339  19.274  13.052
 2252DOPC   NC326281  21.979  21.731  11.852
 2252DOPC   PO426282  22.189  21.561  12.202
 2252DOPC   GL126283  22.409  21.344  12.532
 2252DOPC   GL226284  22.399  21.601  12.882
 2252DOPC   C1A26285  22.669  21.104  12.882
 2252DOPC   D2A26286  22.579  21.034  13.302
 2252DOPC   C3A26287  22.829  20.774  13.592
 2252DOPC   C4A26288  22.609  20.514  13.852
 2252DOPC   C1B26289  22.249  21.811  13.242
 2252DOPC   D2B26290  22.129  21.911  13.662
 2252DOPC   C3B26291  22.139  21.721  14.002
 2252DOPC   C4B26292  22.019  21.391  14.252
 2253DOPC   NC326293  23.229  19.264  12.502
 2253DOPC   PO426294  23.039  18.804  12.422
 2253DOPC   GL126295  23.089  18.874  12.912
 2253DOPC   GL226296  23.419  19.124  13.052
 2253DOPC   C1A26297  23.179  18.724  13.392
 2253DOPC   D2A26298  23.029  18.734  13.812
 2253DOPC   C3A26299  22.799  19.094  14.022
 2253DOPC   C4A26300  22.799  19.044  14.522
 2253DOPC   C1B26301  23.599  19.084  13.402
 2253DOPC   D2B26302  23.529  18.904  13.822
 2253DOPC   C3B26303  23.349  19.154  14.032
 2253DOPC   C4B26304  23.109  19.454  14.142
 2254DOPC   NC326305  10.119  22.121  15.182
 2254DOPC   PO426306   9.669  22.021  15.102
 2254DOPC   GL126307   9.619  22.021  14.662
 2254DOPC   GL226308   9.349  21.871  14.612
 2254DOPC   C1A26309   9.849  22.021  14.372
 2254DOPC   D2A26310   9.839  22.041  13.952
 2254DOPC   C3A26311  10.199  22.001  13.752
 2254DOPC   C4A26312  10.579  22.101  13.392
 2254DOPC   C1B26313   9.409  21.831  14.212
 2254DOPC   D2B26314   9.469  21.761  13.782
 2254DOPC   C3B26315   9.759  22.071  13.472
 2254DOPC   C4B26316  10.069  22.061  13.212
 2255DOPC   NC326317  19.559   4.844  15.322
 2255DOPC   PO426318  19.909   5.164  15.232
 2255DOPC   GL126319  19.949   5.234  14.742
 2255DOPC   GL226320  19.679   5.454  14.672
 2255DOPC   C1A26321  19.999   5.104  14.272
 2255DOPC   D2A26322  20.019   4.874  13.892
 2255DOPC   C3A26323  20.249   5.084  13.622
 2255DOPC   C4A26324  20.239   5.284  13.272
 2255DOPC   C1B26325  19.639   5.384  14.142
 2255DOPC   D2B26326  19.739   5.334  13.742
 2255DOPC   C3B26327  19.719   4.904  13.492
 2255DOPC   C4B26328  20.089   4.784  13.252
 2256DOPC   NC326329   1.039   9.414  15.542
 2256DOPC   PO426330   0.899   9.834  15.282
 2256DOPC   GL126331   0.839   9.604  15.002
 2256DOPC   GL226332   0.589   9.484  14.822
 2256DOPC   C1A26333   1.119   9.524  14.682
 2256DOPC   D2A26334   1.139   9.224  14.272
 2256DOPC   C3A26335   0.959   9.174  13.992
 2256DOPC   C4A26336   1.069   9.184  13.502
 2256DOPC   C1B26337   0.679   9.254  14.482
 2256DOPC   D2B26338   0.519   9.494  14.152
 2256DOPC   C3B26339   0.329   9.324  13.812
 2256DOPC   C4B26340   0.439   9.174  13.382
 2257DOPC   NC326341  16.639  16.534  15.792
 2257DOPC   PO426342  16.629  16.704  15.342
 2257DOPC   GL126343  16.729  16.754  14.972
 2257DOPC   GL226344  16.509  16.554  14.772
 2257DOPC   C1A26345  16.799  16.804  14.442
 2257DOPC   D2A26346  16.859  16.764  14.022
 2257DOPC   C3A26347  16.559  16.854  13.822
 2257DOPC   C4A26348  16.309  17.014  13.472
 2257DOPC   C1B26349  16.259  16.764  14.582
 2257DOPC   D2B26350  16.319  16.854  14.292
 2257DOPC   C3B26351  16.039  16.664  14.012
 2257DOPC   C4B26352  16.139  16.534  13.592
 2258DOPC   NC326353  12.729  24.791  15.322
 2258DOPC   PO426354  12.909  24.321  15.322
 2258DOPC   GL126355  12.819  24.411  14.902
 2258DOPC   GL226356  12.799  24.201  14.832
 2258DOPC   C1A26357  13.149  24.581  14.592
 2258DOPC   D2A26358  13.299  24.871  14.242
 2258DOPC   C3A26359  13.479  24.871  13.832
 2258DOPC   C4A26360  13.549  24.771  13.412
 2258DOPC   C1B26361  12.979  24.071  14.472
 2258DOPC   D2B26362  12.919  23.971  14.042
 2258DOPC   C3B26363  12.699  24.351  13.732
 2258DOPC   C4B26364  12.359  24.391  13.382
 2259DOPC   NC326365  17.789  25.421  16.102
 2259DOPC   PO426366  17.659  24.941  16.022
 2259DOPC   GL126367  17.849  25.001  15.542
 2259DOPC   GL226368  18.079  24.751  15.462
 2259DOPC   C1A26369  17.659  24.771  15.222
 2259DOPC   D2A26370  17.439  24.381  15.112
 2259DOPC   C3A26371  17.499  24.091  14.812
 2259DOPC   C4A26372  17.399  23.931  14.442
 2259DOPC   C1B26373  18.099  24.831  15.082
 2259DOPC   D2B26374  17.959  24.971  14.682
 2259DOPC   C3B26375  18.259  25.151  14.382
 2259DOPC   C4B26376  18.129  25.521  14.062
 2260DOPC   NC326377  18.129   1.454  11.512
 2260DOPC   PO426378  18.069   1.904  11.732
 2260DOPC   GL126379  18.119   1.904  12.222
 2260DOPC   GL226380  17.759   2.024  12.312
 2260DOPC   C1A26381  18.329   2.034  12.452
 2260DOPC   D2A26382  18.609   2.354  12.592
 2260DOPC   C3A26383  18.619   2.694  12.352
 2260DOPC   C4A26384  18.189   2.854  12.232
 2260DOPC   C1B26385  17.279   2.164  12.472
 2260DOPC   D2B26386  16.999   2.104  12.882
 2260DOPC   C3B26387  17.139   1.994  13.252
 2260DOPC   C4B26388  17.459   2.224  13.592
 2261DOPC   NC326389   7.809   2.544  10.892
 2261DOPC   PO426390   8.039   2.304  10.912
 2261DOPC   GL126391   7.899   2.264  11.342
 2261DOPC   GL226392   7.969   2.034  11.552
 2261DOPC   C1A26393   7.789   2.454  11.762
 2261DOPC   D2A26394   7.979   2.504  12.072
 2261DOPC   C3A26395   7.899   2.584  12.442
 2261DOPC   C4A26396   7.939   2.914  12.782
 2261DOPC   C1B26397   8.089   2.044  11.922
 2261DOPC   D2B26398   8.329   2.014  12.232
 2261DOPC   C3B26399   8.439   2.404  12.472
 2261DOPC   C4B26400   8.639   2.494  12.712
 2262DOPC   NC326401  21.279  14.924  16.032
 2262DOPC   PO426402  21.319  15.154  15.742
 2262DOPC   GL126403  21.499  15.154  15.352
 2262DOPC   GL226404  21.369  15.444  15.212
 2262DOPC   C1A26405  21.609  15.044  14.832
 2262DOPC   D2A26406  21.589  15.454  14.582
 2262DOPC   C3A26407  21.939  15.534  14.452
 2262DOPC   C4A26408  22.399  15.364  14.552
 2262DOPC   C1B26409  21.149  15.344  14.872
 2262DOPC   D2B26410  20.979  15.194  14.512
 2262DOPC   C3B26411  21.179  14.814  14.422
 2262DOPC   C4B26412  21.289  14.654  14.022
 2263DOPC   NC326413  15.929  23.401  11.862
 2263DOPC   PO426414  15.509  23.501  11.772
 2263DOPC   GL126415  15.389  23.531  12.212
 2263DOPC   GL226416  15.279  23.361  12.422
 2263DOPC   C1A26417  15.549  23.811  12.552
 2263DOPC   D2A26418  15.469  23.931  12.902
 2263DOPC   C3A26419  15.719  23.981  13.192
 2263DOPC   C4A26420  15.839  23.961  13.612
 2263DOPC   C1B26421  15.029  23.711  12.542
 2263DOPC   D2B26422  14.809  24.041  12.572
 2263DOPC   C3B26423  14.639  24.021  13.002
 2263DOPC   C4B26424  14.699  24.121  13.452
 2264DOPC   NC326425  12.719  14.224  10.202
 2264DOPC   PO426426  13.179  14.224  10.182
 2264DOPC   GL126427  13.089  14.044  10.522
 2264DOPC   GL226428  13.239  13.824  10.802
 2264DOPC   C1A26429  12.829  13.834  11.022
 2264DOPC   D2A26430  12.549  13.964  11.302
 2264DOPC   C3A26431  12.569  14.194  11.632
 2264DOPC   C4A26432  12.859  14.344  11.912
 2264DOPC   C1B26433  13.319  13.644  11.242
 2264DOPC   D2B26434  13.439  13.564  11.742
 2264DOPC   C3B26435  13.519  13.884  11.982
 2264DOPC   C4B26436  13.479  14.004  12.392
 2265DOPC   NC326437  17.989  16.554  12.122
 2265DOPC   PO426438  17.609  16.754  12.152
 2265DOPC   GL126439  17.299  16.854  12.412
 2265DOPC   GL226440  17.169  17.104  12.212
 2265DOPC   C1A26441  16.999  16.784  12.772
 2265DOPC   D2A26442  16.589  17.064  12.972
 2265DOPC   C3A26443  16.309  17.164  12.682
 2265DOPC   C4A26444  15.899  17.264  12.612
 2265DOPC   C1B26445  17.249  17.374  12.672
 2265DOPC   D2B26446  17.189  17.474  13.112
 2265DOPC   C3B26447  16.799  17.434  13.242
 2265DOPC   C4B26448  16.369  17.484  13.392
 2266DOPC   NC326449  18.699   4.824  11.542
 2266DOPC   PO426450  18.409   4.404  11.522
 2266DOPC   GL126451  18.419   4.184  11.992
 2266DOPC   GL226452  18.709   3.964  11.962
 2266DOPC   C1A26453  18.559   4.244  12.352
 2266DOPC   D2A26454  18.659   4.194  12.832
 2266DOPC   C3A26455  18.349   3.984  13.022
 2266DOPC   C4A26456  17.959   3.904  13.302
 2266DOPC   C1B26457  18.459   3.734  12.332
 2266DOPC   D2B26458  18.639   3.614  12.722
 2266DOPC   C3B26459  18.619   3.584  13.122
 2266DOPC   C4B26460  18.459   3.894  13.462
 2267DOPC   NC326461  23.249  10.594  15.502
 2267DOPC   PO426462  23.069  10.924  15.472
 2267DOPC   GL126463  22.809  10.834  15.142
 2267DOPC   GL226464  22.619  10.504  15.222
 2267DOPC   C1A26465  22.549  10.864  14.892
 2267DOPC   D2A26466  22.249  10.744  14.642
 2267DOPC   C3A26467  22.259  10.664  14.222
 2267DOPC   C4A26468  22.239  10.904  13.892
 2267DOPC   C1B26469  22.489  10.284  14.782
 2267DOPC   D2B26470  22.369  10.164  14.312
 2267DOPC   C3B26471  22.609  10.294  13.992
 2267DOPC   C4B26472  22.779  10.634  13.712
 2268DOPC   NC326473   6.719   9.894  10.592
 2268DOPC   PO426474   6.629  10.174  10.962
 2268DOPC   GL126475   6.919   9.934  11.292
 2268DOPC   GL226476   7.279   9.924  11.272
 2268DOPC   C1A26477   7.069   9.844  11.752
 2268DOPC   D2A26478   7.019   9.714  12.182
 2268DOPC   C3A26479   7.289   9.944  12.522
 2268DOPC   C4A26480   7.499  10.184  12.902
 2268DOPC   C1B26481   7.559   9.804  11.672
 2268DOPC   D2B26482   7.799   9.824  12.112
 2268DOPC   C3B26483   7.739  10.114  12.442
 2268DOPC   C4B26484   7.579  10.484  12.492
 2269DOPC   NC326485  22.599  25.241  11.932
 2269DOPC   PO426486  22.709  25.321  12.292
 2269DOPC   GL126487  22.889  25.101  12.512
 2269DOPC   GL226488  23.029  25.221  12.742
 2269DOPC   C1A26489  22.639  24.751  12.722
 2269DOPC   D2A26490  22.809  24.441  13.042
 2269DOPC   C3A26491  23.139  24.391  13.402
 2269DOPC   C4A26492  23.459  24.161  13.552
 2269DOPC   C1B26493  22.849  25.171  13.062
 2269DOPC   D2B26494  22.549  25.381  13.382
 2269DOPC   C3B26495  22.709  25.421  13.802
 2269DOPC   C4B26496  22.999  25.761  14.082
 2270DOPC   NC326497  24.289   1.824  15.532
 2270DOPC   PO426498  24.589   1.574  15.802
 2270DOPC   GL126499  24.739   1.694  15.382
 2270DOPC   GL226500  24.559   1.434  15.162
 2270DOPC   C1A26501  24.609   1.964  14.992
 2270DOPC   D2A26502  24.389   2.194  14.692
 2270DOPC   C3A26503  24.249   2.564  14.712
 2270DOPC   C4A26504  24.429   2.974  14.712
 2270DOPC   C1B26505  24.469   1.574  14.702
 2270DOPC   D2B26506  24.219   1.524  14.432
 2270DOPC   C3B26507  24.039   1.084  14.322
 2270DOPC   C4B26508  23.879   0.864  13.852
 2271DOPC   NC326509   8.459  19.794  11.322
 2271DOPC   PO426510   8.769  20.184  11.082
 2271DOPC   GL126511   8.939  19.934  11.462
 2271DOPC   GL226512   9.119  19.614  11.502
 2271DOPC   C1A26513   9.079  20.114  11.822
 2271DOPC   D2A26514   9.009  20.204  12.152
 2271DOPC   C3A26515   9.179  19.984  12.492
 2271DOPC   C4A26516   9.249  20.004  12.902
 2271DOPC   C1B26517   9.299  19.684  11.862
 2271DOPC   D2B26518   9.669  19.704  12.132
 2271DOPC   C3B26519   9.779  19.574  12.562
 2271DOPC   C4B26520   9.749  19.884  12.812
 2272DOPC   NC326521   3.019  12.424  15.062
 2272DOPC   PO426522   2.579  12.364  15.102
 2272DOPC   GL126523   2.399  12.454  14.632
 2272DOPC   GL226524   2.329  12.204  14.642
 2272DOPC   C1A26525   2.449  12.464  14.122
 2272DOPC   D2A26526   2.499  12.484  13.672
 2272DOPC   C3A26527   2.479  12.244  13.392
 2272DOPC   C4A26528   2.629  11.864  13.122
 2272DOPC   C1B26529   2.359  11.724  14.402
 2272DOPC   D2B26530   2.499  11.514  14.022
 2272DOPC   C3B26531   2.199  11.204  13.742
 2272DOPC   C4B26532   2.339  10.924  13.362
 2273DOPC   NC326533   7.499  10.394  10.762
 2273DOPC   PO426534   7.229  10.764  10.962
 2273DOPC   GL126535   7.429  10.954  11.282
 2273DOPC   GL226536   7.389  11.214  11.382
 2273DOPC   C1A26537   7.269  10.844  11.742
 2273DOPC   D2A26538   7.329  10.674  12.122
 2273DOPC   C3A26539   7.339  10.974  12.482
 2273DOPC   C4A26540   7.019  11.324  12.572
 2273DOPC   C1B26541   7.469  11.254  11.782
 2273DOPC   D2B26542   7.689  11.084  12.062
 2273DOPC   C3B26543   7.829  11.244  12.322
 2273DOPC   C4B26544   8.019  11.554  12.592
 2274DOPC   NC326545   7.239  15.214  15.352
 2274DOPC   PO426546   7.159  15.454  15.022
 2274DOPC   GL126547   7.099  15.494  14.592
 2274DOPC   GL226548   7.089  15.204  14.462
 2274DOPC   C1A26549   7.219  15.504  14.082
 2274DOPC   D2A26550   7.219  15.694  13.652
 2274DOPC   C3A26551   7.409  15.704  13.282
 2274DOPC   C4A26552   7.709  15.814  13.152
 2274DOPC   C1B26553   6.799  15.244  14.072
 2274DOPC   D2B26554   6.509  15.424  13.832
 2274DOPC   C3B26555   6.439  15.464  13.422
 2274DOPC   C4B26556   6.399  15.594  13.052
 2275DOPC   NC326557  14.049  24.831  15.602
 2275DOPC   PO426558  14.129  24.881  15.252
 2275DOPC   GL126559  14.079  24.961  14.812
 2275DOPC   GL226560  14.049  24.581  14.732
 2275DOPC   C1A26561  14.149  25.311  14.522
 2275DOPC   D2A26562  13.839  25.651  14.452
 2275DOPC   C3A26563  13.539  25.691  14.202
 2275DOPC   C4A26564  13.509  25.961  13.792
 2275DOPC   C1B26565  14.209  24.471  14.462
 2275DOPC   D2B26566  14.479  24.371  14.142
 2275DOPC   C3B26567  14.319  24.341  13.742
 2275DOPC   C4B26568  14.269  24.171  13.352
 2276DOPC   NC326569  13.419   5.994  14.592
 2276DOPC   PO426570  12.949   6.134  14.622
 2276DOPC   GL126571  13.049   6.104  14.162
 2276DOPC   GL226572  13.069   6.424  13.962
 2276DOPC   C1A26573  12.829   5.964  13.752
 2276DOPC   D2A26574  12.699   5.834  13.362
 2276DOPC   C3A26575  12.829   5.934  12.962
 2276DOPC   C4A26576  12.769   5.814  12.492
 2276DOPC   C1B26577  13.229   6.824  13.802
 2276DOPC   D2B26578  13.519   7.164  13.862
 2276DOPC   C3B26579  13.989   7.034  13.942
 2276DOPC   C4B26580  14.439   6.904  14.042
 2277DOPC   NC326581   2.739  10.664  15.282
 2277DOPC   PO426582   2.819  10.994  14.942
 2277DOPC   GL126583   2.589  10.554  14.812
 2277DOPC   GL226584   2.739  10.274  14.672
 2277DOPC   C1A26585   2.189  10.494  14.622
 2277DOPC   D2A26586   1.869  10.404  14.352
 2277DOPC   C3A26587   2.169  10.284  14.062
 2277DOPC   C4A26588   2.289   9.954  13.812
 2277DOPC   C1B26589   2.649  10.404  14.182
 2277DOPC   D2B26590   2.609  10.324  13.772
 2277DOPC   C3B26591   2.999  10.214  13.682
 2277DOPC   C4B26592   3.309   9.964  13.722
 2278DOPC   NC326593  17.209   1.104  15.972
 2278DOPC   PO426594  17.579   0.894  15.872
 2278DOPC   GL126595  17.569   0.874  15.452
 2278DOPC   GL226596  17.969   0.874  15.352
 2278DOPC   C1A26597  17.569   0.694  15.032
 2278DOPC   D2A26598  17.539   0.384  14.682
 2278DOPC   C3A26599  17.449   0.564  14.312
 2278DOPC   C4A26600  17.229   0.574  13.972
 2278DOPC   C1B26601  17.899   1.034  15.012
 2278DOPC   D2B26602  17.909   1.344  14.722
 2278DOPC   C3B26603  18.019   1.334  14.272
 2278DOPC   C4B26604  18.329   1.644  14.502
 2279DOPC   NC326605  23.209   9.344  15.502
 2279DOPC   PO426606  23.209   8.984  15.262
 2279DOPC   GL126607  22.919   8.764  15.012
 2279DOPC   GL226608  22.849   9.004  14.742
 2279DOPC   C1A26609  22.949   8.584  14.512
 2279DOPC   D2A26610  22.719   8.564  14.092
 2279DOPC   C3A26611  22.579   8.994  13.872
 2279DOPC   C4A26612  22.399   9.344  13.842
 2279DOPC   C1B26613  22.539   8.954  14.372
 2279DOPC   D2B26614  22.219   8.844  14.222
 2279DOPC   C3B26615  22.059   9.004  13.832
 2279DOPC   C4B26616  21.739   9.064  13.492
 2280DOPC   NC326617   4.549  23.541  15.302
 2280DOPC   PO426618   4.649  24.081  15.202
 2280DOPC   GL126619   4.859  24.111  14.782
 2280DOPC   GL226620   4.669  23.841  14.672
 2280DOPC   C1A26621   5.209  23.791  14.572
 2280DOPC   D2A26622   5.459  23.581  14.252
 2280DOPC   C3A26623   5.349  23.821  13.832
 2280DOPC   C4A26624   5.549  23.921  13.352
 2280DOPC   C1B26625   4.519  24.121  14.232
 2280DOPC   D2B26626   4.679  24.391  13.812
 2280DOPC   C3B26627   4.379  24.741  13.622
 2280DOPC   C4B26628   4.329  24.771  13.202
 2281DOPC   NC326629  13.579   9.094  10.692
 2281DOPC   PO426630  13.159   9.094  10.652
 2281DOPC   GL126631  13.249   9.374  10.932
 2281DOPC   GL226632  13.009   9.334  11.222
 2281DOPC   C1A26633  13.309   9.774  11.072
 2281DOPC   D2A26634  13.199  10.244  11.222
 2281DOPC   C3A26635  12.799  10.484  11.312
 2281DOPC   C4A26636  12.499  10.534  11.592
 2281DOPC   C1B26637  13.129   9.524  11.592
 2281DOPC   D2B26638  13.079  10.064  11.732
 2281DOPC   C3B26639  13.099  10.124  12.182
 2281DOPC   C4B26640  12.989  10.514  12.432
 2282DOPC   NC326641   8.719   1.214  10.782
 2282DOPC   PO426642   9.019   1.014  10.932
 2282DOPC   GL126643   8.839   0.924  11.332
 2282DOPC   GL226644   9.019   0.754  11.552
 2282DOPC   C1A26645   8.619   0.924  11.752
 2282DOPC   D2A26646   8.229   1.034  11.832
 2282DOPC   C3A26647   7.819   1.104  11.992
 2282DOPC   C4A26648   7.309   1.194  12.062
 2282DOPC   C1B26649   8.999   0.764  12.102
 2282DOPC   D2B26650   9.029   0.784  12.482
 2282DOPC   C3B26651   8.869   1.184  12.672
 2282DOPC   C4B26652   8.689   1.544  12.942
 2283DOPC   NC326653   6.679  22.001  15.462
 2283DOPC   PO426654   6.209  22.101  15.352
 2283DOPC   GL126655   5.969  22.111  14.952
 2283DOPC   GL226656   6.069  22.331  14.672
 2283DOPC   C1A26657   5.789  21.911  14.522
 2283DOPC   D2A26658   5.619  21.561  14.432
 2283DOPC   C3A26659   5.779  21.344  14.042
 2283DOPC   C4A26660   5.549  21.294  13.762
 2283DOPC   C1B26661   6.219  22.241  14.252
 2283DOPC   D2B26662   6.359  22.471  13.912
 2283DOPC   C3B26663   6.699  22.591  14.152
 2283DOPC   C4B26664   7.049  22.981  14.302
 2284DOPC   NC326665  15.609   2.484  11.212
 2284DOPC   PO426666  16.059   2.664  11.272
 2284DOPC   GL126667  16.319   2.734  11.732
 2284DOPC   GL226668  16.319   2.444  11.902
 2284DOPC   C1A26669  16.379   3.054  12.102
 2284DOPC   D2A26670  16.179   3.324  12.312
 2284DOPC   C3A26671  15.709   3.364  12.382
 2284DOPC   C4A26672  15.229   3.404  12.332
 2284DOPC   C1B26673  16.039   2.454  12.302
 2284DOPC   D2B26674  15.789   2.164  12.482
 2284DOPC   C3B26675  16.049   2.024  12.792
 2284DOPC   C4B26676  16.169   2.144  13.282
 2285DOPC   NC326677  16.339  17.524  15.592
 2285DOPC   PO426678  16.699  17.184  15.612
 2285DOPC   GL126679  16.599  17.224  15.122
 2285DOPC   GL226680  16.619  17.544  15.202
 2285DOPC   C1A26681  16.589  17.144  14.662
 2285DOPC   D2A26682  16.699  17.294  14.202
 2285DOPC   C3A26683  16.999  17.624  14.142
 2285DOPC   C4A26684  17.109  18.014  13.992
 2285DOPC   C1B26685  17.009  17.314  14.892
 2285DOPC   D2B26686  17.089  17.264  14.462
 2285DOPC   C3B26687  17.559  17.394  14.162
 2285DOPC   C4B26688  17.899  17.594  14.292
 2286DOPC   NC326689  11.529  14.954  14.532
 2286DOPC   PO426690  11.539  14.494  14.542
 2286DOPC   GL126691  11.339  14.214  14.212
 2286DOPC   GL226692  11.539  14.354  13.952
 2286DOPC   C1A26693  10.989  14.344  13.932
 2286DOPC   D2A26694  10.859  14.434  13.512
 2286DOPC   C3A26695  10.439  14.514  13.422
 2286DOPC   C4A26696  10.089  14.324  13.462
 2286DOPC   C1B26697  11.379  14.574  13.682
 2286DOPC   D2B26698  11.299  14.684  13.282
 2286DOPC   C3B26699  11.209  14.414  12.992
 2286DOPC   C4B26700  11.389  14.094  12.902
 2287DOPC   NC326701  13.859   1.244  15.012
 2287DOPC   PO426702  13.859   1.684  14.872
 2287DOPC   GL126703  14.019   1.664  14.472
 2287DOPC   GL226704  13.909   1.424  14.332
 2287DOPC   C1A26705  14.349   1.704  14.232
 2287DOPC   D2A26706  14.659   1.654  13.872
 2287DOPC   C3A26707  14.399   1.654  13.612
 2287DOPC   C4A26708  14.019   1.804  13.422
 2287DOPC   C1B26709  13.869   1.634  13.852
 2287DOPC   D2B26710  13.629   1.514  13.482
 2287DOPC   C3B26711  13.969   1.474  13.052
 2287DOPC   C4B26712  14.379   1.264  13.072
 2288DOPC   NC326713   9.699   8.924  14.262
 2288DOPC   PO426714   9.359   9.214  14.162
 2288DOPC   GL126715   9.169   9.204  13.752
 2288DOPC   GL226716   8.799   9.164  13.682
 2288DOPC   C1A26717   9.139   9.254  13.322
 2288DOPC   D2A26718   8.779   9.134  13.012
 2288DOPC   C3A26719   8.499   9.354  12.612
 2288DOPC   C4A26720   8.639   9.354  12.262
 2288DOPC   C1B26721   8.499   9.334  13.392
 2288DOPC   D2B26722   8.319   9.414  13.102
 2288DOPC   C3B26723   7.969   9.404  12.842
 2288DOPC   C4B26724   7.649   9.614  12.562
 2289DOPC   NC326725  19.389  15.534  15.492
 2289DOPC   PO426726  19.219  15.904  15.642
 2289DOPC   GL126727  19.179  15.924  15.222
 2289DOPC   GL226728  19.329  16.114  15.132
 2289DOPC   C1A26729  18.919  15.714  15.022
 2289DOPC   D2A26730  18.689  15.614  14.622
 2289DOPC   C3A26731  18.789  15.624  14.152
 2289DOPC   C4A26732  18.909  15.614  13.782
 2289DOPC   C1B26733  19.029  16.094  14.752
 2289DOPC   D2B26734  18.899  16.054  14.382
 2289DOPC   C3B26735  19.299  15.894  14.142
 2289DOPC   C4B26736  19.669  15.774  14.122
 2290DOPC   NC326737  13.189   7.054  14.402
 2290DOPC   PO426738  13.259   7.434  14.172
 2290DOPC   GL126739  13.569   7.644  13.982
 2290DOPC   GL226740  13.859   7.514  14.102
 2290DOPC   C1A26741  13.769   7.964  13.712
 2290DOPC   D2A26742  13.829   8.054  13.312
 2290DOPC   C3A26743  13.769   7.984  12.912
 2290DOPC   C4A26744  13.609   7.854  12.642
 2290DOPC   C1B26745  13.899   7.524  13.602
 2290DOPC   D2B26746  13.779   7.534  13.162
 2290DOPC   C3B26747  14.199   7.684  12.852
 2290DOPC   C4B26748  14.529   7.774  12.482
 2291DOPC   NC326749  16.759  25.131  16.392
 2291DOPC   PO426750  16.789  24.951  15.952
 2291DOPC   GL126751  16.679  24.961  15.632
 2291DOPC   GL226752  16.979  25.171  15.532
 2291DOPC   C1A26753  16.689  24.971  15.182
 2291DOPC   D2A26754  16.519  25.231  14.882
 2291DOPC   C3A26755  16.469  25.371  14.482
 2291DOPC   C4A26756  16.109  25.211  14.242
 2291DOPC   C1B26757  17.299  25.051  15.332
 2291DOPC   D2B26758  17.549  25.081  14.862
 2291DOPC   C3B26759  17.489  24.901  14.492
 2291DOPC   C4B26760  17.229  24.831  14.042
 2292DOPC   NC326761  13.639  21.951  15.422
 2292DOPC   PO426762  13.579  21.371  15.422
 2292DOPC   GL126763  13.659  21.391  14.992
 2292DOPC   GL226764  13.639  21.014  14.942
 2292DOPC   C1A26765  13.869  21.264  14.552
 2292DOPC   D2A26766  13.899  21.074  14.142
 2292DOPC   C3A26767  13.769  21.334  13.722
 2292DOPC   C4A26768  13.579  21.501  13.332
 2292DOPC   C1B26769  13.509  20.824  14.572
 2292DOPC   D2B26770  13.659  20.574  14.252
 2292DOPC   C3B26771  14.019  20.514  13.952
 2292DOPC   C4B26772  14.429  20.484  13.992
 2293DOPC   NC326773   1.169  13.484  15.182
 2293DOPC   PO426774   1.409  13.144  15.262
 2293DOPC   GL126775   1.419  13.174  14.782
 2293DOPC   GL226776   1.219  13.564  14.662
 2293DOPC   C1A26777   1.479  13.244  14.362
 2293DOPC   D2A26778   1.639  13.534  14.052
 2293DOPC   C3A26779   1.299  13.694  13.772
 2293DOPC   C4A26780   1.579  13.964  13.402
 2293DOPC   C1B26781   1.129  13.664  14.362
 2293DOPC   D2B26782   0.989  13.964  14.042
 2293DOPC   C3B26783   1.229  14.244  13.832
 2293DOPC   C4B26784   1.509  14.514  13.672
 2294DOPC   NC326785  23.909  24.001  12.042
 2294DOPC   PO426786  24.179  24.281  12.322
 2294DOPC   GL126787  24.369  24.571  12.712
 2294DOPC   GL226788  24.249  24.581  13.112
 2294DOPC   C1A26789  24.589  24.871  12.852
 2294DOPC   D2A26790  24.609  24.931  13.232
 2294DOPC   C3A26791  24.859  24.531  13.372
 2294DOPC   C4A26792  25.209  24.411  13.282
 2294DOPC   C1B26793  24.139  25.001  13.292
 2294DOPC   D2B26794  23.949  25.021  13.692
 2294DOPC   C3B26795  24.229  24.791  14.052
 2294DOPC   C4B26796  24.499  24.531  14.322
 2295DOPC   NC326797   1.149   1.724  15.332
 2295DOPC   PO426798   1.229   1.334  15.712
 2295DOPC   GL126799   1.209   1.154  15.252
 2295DOPC   GL226800   1.499   1.034  15.072
 2295DOPC   C1A26801   0.949   1.124  14.922
 2295DOPC   D2A26802   0.699   1.184  14.542
 2295DOPC   C3A26803   0.659   0.994  14.162
 2295DOPC   C4A26804   0.649   1.054  13.712
 2295DOPC   C1B26805   1.499   0.774  14.642
 2295DOPC   D2B26806   1.259   0.344  14.462
 2295DOPC   C3B26807   0.899   0.044  14.512
 2295DOPC   C4B26808   0.679  -0.376  14.522
 2296DOPC   NC326809  25.629   9.994  15.532
 2296DOPC   PO426810  25.686  10.404  15.612
 2296DOPC   GL126811  25.639  10.354  15.112
 2296DOPC   GL226812  25.319  10.494  15.092
 2296DOPC   C1A26813  25.676  10.654  14.792
 2296DOPC   D2A26814  25.629  10.764  14.382
 2296DOPC   C3A26815  25.866  10.894  13.962
 2296DOPC   C4A26816  26.176  10.824  13.572
 2296DOPC   C1B26817  25.209  10.524  14.672
 2296DOPC   D2B26818  25.189  10.374  14.252
 2296DOPC   C3B26819  24.939  10.404  13.852
 2296DOPC   C4B26820  24.979  10.724  13.472
 2297DOPC   NC326821   8.619   7.654  15.172
 2297DOPC   PO426822   8.639   7.324  14.952
 2297DOPC   GL126823   8.409   7.244  14.552
 2297DOPC   GL226824   8.569   7.464  14.282
 2297DOPC   C1A26825   8.089   7.374  14.272
 2297DOPC   D2A26826   7.879   7.734  14.022
 2297DOPC   C3A26827   7.989   7.824  13.612
 2297DOPC   C4A26828   7.769   8.194  13.332
 2297DOPC   C1B26829   8.279   7.394  13.822
 2297DOPC   D2B26830   8.349   7.514  13.432
 2297DOPC   C3B26831   8.189   7.314  13.052
 2297DOPC   C4B26832   7.899   6.924  13.082
 2298DOPC   NC326833  25.489  25.591  15.772
 2298DOPC   PO426834  25.389  25.161  15.842
 2298DOPC   GL126835  25.369  25.201  15.512
 2298DOPC   GL226836  25.049  25.351  15.472
 2298DOPC   C1A26837  25.489  25.111  15.162
 2298DOPC   D2A26838  25.846  25.121  14.952
 2298DOPC   C3A26839  26.246  24.921  15.062
 2298DOPC   C4A26840  26.706  25.011  15.072
 2298DOPC   C1B26841  24.969  25.591  15.082
 2298DOPC   D2B26842  25.099  25.631  14.702
 2298DOPC   C3B26843  24.949  25.471  14.392
 2298DOPC   C4B26844  24.579  25.311  14.232
 2299DOPC   NC326845   8.919   9.974  14.502
 2299DOPC   PO426846   9.099   9.564  14.592
 2299DOPC   GL126847   9.169   9.634  14.112
 2299DOPC   GL226848   8.909   9.764  13.952
 2299DOPC   C1A26849   9.219   9.694  13.592
 2299DOPC   D2A26850   8.979   9.744  13.212
 2299DOPC   C3A26851   8.649   9.834  13.042
 2299DOPC   C4A26852   8.219   9.894  12.852
 2299DOPC   C1B26853   8.769  10.004  13.572
 2299DOPC   D2B26854   8.339   9.884  13.412
 2299DOPC   C3B26855   8.069  10.204  13.262
 2299DOPC   C4B26856   7.669  10.394  13.302
 2300DOPC   NC326857  20.439   5.144  11.652
 2300DOPC   PO426858  20.039   5.124  11.512
 2300DOPC   GL126859  19.899   5.014  11.872
 2300DOPC   GL226860  20.129   5.144  12.112
 2300DOPC   C1A26861  19.829   4.724  12.212
 2300DOPC   D2A26862  19.559   4.474  12.462
 2300DOPC   C3A26863  19.869   4.524  12.872
 2300DOPC   C4A26864  19.909   4.294  13.322
 2300DOPC   C1B26865  20.069   5.634  12.332
 2300DOPC   D2B26866  19.659   5.684  12.532
 2300DOPC   C3B26867  19.419   5.434  12.842
 2300DOPC   C4B26868  19.239   5.144  12.712
 2301DOPC   NC326869   8.949  11.544  14.582
 2301DOPC   PO426870   8.699  11.164  14.492
 2301DOPC   GL126871   8.719  10.864  14.212
 2301DOPC   GL226872   8.329  10.794  14.312
 2301DOPC   C1A26873   8.829  10.694  13.752
 2301DOPC   D2A26874   9.079  10.414  13.442
 2301DOPC   C3A26875   8.989  10.194  13.042
 2301DOPC   C4A26876   9.079  10.114  12.542
 2301DOPC   C1B26877   8.349  10.774  13.862
 2301DOPC   D2B26878   8.049  10.714  13.562
 2301DOPC   C3B26879   8.059  10.654  13.072
 2301DOPC   C4B26880   8.019  10.334  12.792
 2302DOPC   NC326881  23.719  15.154  15.442
 2302DOPC   PO426882  23.269  15.094  15.642
 2302DOPC   GL126883  23.319  14.834  15.282
 2302DOPC   GL226884  23.399  14.574  15.242
 2302DOPC   C1A26885  23.169  14.964  14.892
 2302DOPC   D2A26886  23.169  14.664  14.612
 2302DOPC   C3A26887  22.919  14.734  14.192
 2302DOPC   C4A26888  22.559  14.734  13.902
 2302DOPC   C1B26889  23.669  14.784  14.942
 2302DOPC   D2B26890  23.789  15.234  14.972
 2302DOPC   C3B26891  24.139  15.274  14.712
 2302DOPC   C4B26892  24.089  15.504  14.302
 2303DOPC   NC326893   1.599  20.304  15.442
 2303DOPC   PO426894   1.279  20.524  15.562
 2303DOPC   GL126895   1.329  20.694  15.142
 2303DOPC   GL226896   1.009  20.664  15.052
 2303DOPC   C1A26897   1.399  20.494  14.732
 2303DOPC   D2A26898   1.569  20.514  14.302
 2303DOPC   C3A26899   1.919  20.254  14.292
 2303DOPC   C4A26900   2.269  20.124  14.132
 2303DOPC   C1B26901   0.829  20.374  14.792
 2303DOPC   D2B26902   0.929  20.194  14.342
 2303DOPC   C3B26903   0.869  20.094  13.932
 2303DOPC   C4B26904   1.129  19.984  13.612
 2304DOPC   NC326905  14.129   9.284  14.332
 2304DOPC   PO426906  14.259   9.684  14.252
 2304DOPC   GL126907  14.569   9.944  13.922
 2304DOPC   GL226908  14.409  10.164  13.752
 2304DOPC   C1A26909  14.889   9.984  13.612
 2304DOPC   D2A26910  14.739  10.004  13.122
 2304DOPC   C3A26911  14.819   9.744  12.672
 2304DOPC   C4A26912  15.189   9.904  12.432
 2304DOPC   C1B26913  14.379   9.824  13.432
 2304DOPC   D2B26914  14.329   9.684  12.902
 2304DOPC   C3B26915  14.559   9.314  12.742
 2304DOPC   C4B26916  14.739   8.954  12.582
 2305DOPC   NC326917   2.619   5.514  15.162
 2305DOPC   PO426918   3.049   5.444  15.022
 2305DOPC   GL126919   3.119   5.604  14.682
 2305DOPC   GL226920   2.779   5.524  14.572
 2305DOPC   C1A26921   3.299   5.754  14.262
 2305DOPC   D2A26922   3.749   5.814  14.072
 2305DOPC   C3A26923   3.779   6.114  13.872
 2305DOPC   C4A26924   4.009   6.284  13.472
 2305DOPC   C1B26925   2.759   5.634  14.082
 2305DOPC   D2B26926   2.589   6.054  13.952
 2305DOPC   C3B26927   2.349   6.154  13.592
 2305DOPC   C4B26928   2.449   6.184  13.152
 2306DOPC   NC326929   5.689   2.434  15.812
 2306DOPC   PO426930   5.949   2.134  15.502
 2306DOPC   GL126931   6.109   1.914  15.102
 2306DOPC   GL226932   6.349   2.004  14.972
 2306DOPC   C1A26933   5.989   1.924  14.592
 2306DOPC   D2A26934   6.079   1.914  14.122
 2306DOPC   C3A26935   6.259   2.154  13.922
 2306DOPC   C4A26936   6.279   2.134  13.482
 2306DOPC   C1B26937   6.419   2.054  14.552
 2306DOPC   D2B26938   6.519   2.324  14.282
 2306DOPC   C3B26939   6.659   2.474  13.842
 2306DOPC   C4B26940   6.639   2.694  13.422
 2307DOPC   NC326941  22.399  20.204  11.902
 2307DOPC   PO426942  22.129  20.564  12.212
 2307DOPC   GL126943  22.049  20.474  12.662
 2307DOPC   GL226944  21.709  20.324  12.792
 2307DOPC   C1A26945  22.199  20.724  13.012
 2307DOPC   D2A26946  21.819  20.944  12.912
 2307DOPC   C3A26947  21.459  20.684  13.052
 2307DOPC   C4A26948  21.339  20.554  13.412
 2307DOPC   C1B26949  21.659  19.974  13.092
 2307DOPC   D2B26950  21.429  20.044  13.522
 2307DOPC   C3B26951  21.459  20.394  13.842
 2307DOPC   C4B26952  21.619  20.784  13.882
 2308DOPC   NC326953  14.639   9.964  14.422
 2308DOPC   PO426954  15.119   9.724  14.262
 2308DOPC   GL126955  15.419   9.694  13.932
 2308DOPC   GL226956  15.629   9.354  13.852
 2308DOPC   C1A26957  15.399   9.734  13.452
 2308DOPC   D2A26958  15.599   9.514  13.122
 2308DOPC   C3A26959  15.729   9.184  12.762
 2308DOPC   C4A26960  15.669   9.194  12.282
 2308DOPC   C1B26961  15.339   9.144  13.482
 2308DOPC   D2B26962  15.649   9.004  13.232
 2308DOPC   C3B26963  15.599   8.694  13.082
 2308DOPC   C4B26964  15.809   8.424  12.972
 2309DOPC   NC326965  12.399  16.314  10.202
 2309DOPC   PO426966  12.239  16.314  10.672
 2309DOPC   GL126967  12.059  16.304  11.102
 2309DOPC   GL226968  12.119  16.704  11.232
 2309DOPC   C1A26969  12.229  16.294  11.512
 2309DOPC   D2A26970  12.319  16.114  11.902
 2309DOPC   C3A26971  12.029  15.724  11.982
 2309DOPC   C4A26972  11.799  15.494  12.272
 2309DOPC   C1B26973  12.009  16.634  11.752
 2309DOPC   D2B26974  11.919  16.604  12.212
 2309DOPC   C3B26975  12.239  16.694  12.602
 2309DOPC   C4B26976  12.629  16.844  12.572
 2310DOPC   NC326977  10.319   4.794  10.362
 2310DOPC   PO426978  10.829   4.694  10.362
 2310DOPC   GL126979  10.669   4.594  10.722
 2310DOPC   GL226980  10.379   4.504  10.822
 2310DOPC   C1A26981  10.779   4.674  11.142
 2310DOPC   D2A26982  10.789   4.774  11.572
 2310DOPC   C3A26983  10.949   4.744  11.912
 2310DOPC   C4A26984  10.869   4.844  12.342
 2310DOPC   C1B26985  10.329   4.564  11.372
 2310DOPC   D2B26986  10.359   4.574  11.732
 2310DOPC   C3B26987  10.559   4.354  12.072
 2310DOPC   C4B26988  10.999   4.284  12.342
 2311DOPC   NC326989  15.169  12.754  10.432
 2311DOPC   PO426990  14.819  12.794  10.102
 2311DOPC   GL126991  14.669  12.834  10.532
 2311DOPC   GL226992  14.359  12.434  10.502
 2311DOPC   C1A26993  14.779  12.774  11.062
 2311DOPC   D2A26994  14.839  12.594  11.442
 2311DOPC   C3A26995  14.669  12.664  11.762
 2311DOPC   C4A26996  14.489  12.634  12.122
 2311DOPC   C1B26997  14.289  12.454  10.952
 2311DOPC   D2B26998  14.249  12.584  11.282
 2311DOPC   C3B26999  14.209  12.514  11.702
 2311DOPC   C4B27000  13.839  12.624  11.912
 2312DOPC   NC327001  21.409   8.924  11.652
 2312DOPC   PO427002  21.099   8.474  11.592
 2312DOPC   GL127003  20.949   8.174  11.912
 2312DOPC   GL227004  20.849   7.914  11.872
 2312DOPC   C1A27005  21.009   8.284  12.362
 2312DOPC   D2A27006  20.789   8.294  12.712
 2312DOPC   C3A27007  20.719   7.834  12.892
 2312DOPC   C4A27008  20.539   7.534  12.922
 2312DOPC   C1B27009  20.619   7.924  12.292
 2312DOPC   D2B27010  20.309   7.734  12.582
 2312DOPC   C3B27011  19.879   7.654  12.612
 2312DOPC   C4B27012  19.429   7.594  12.692
 2313DOPC   NC327013  25.309   5.324  15.822
 2313DOPC   PO427014  25.189   5.444  15.402
 2313DOPC   GL127015  25.059   5.294  14.972
 2313DOPC   GL227016  24.799   5.514  14.852
 2313DOPC   C1A27017  25.159   5.234  14.592
 2313DOPC   D2A27018  25.219   5.004  14.262
 2313DOPC   C3A27019  25.349   5.244  13.892
 2313DOPC   C4A27020  25.259   5.594  13.522
 2313DOPC   C1B27021  24.769   5.584  14.462
 2313DOPC   D2B27022  24.809   5.284  14.152
 2313DOPC   C3B27023  24.829   5.334  13.752
 2313DOPC   C4B27024  25.029   5.134  13.452
 2314DOPC   NC327025   4.439  19.704  15.632
 2314DOPC   PO427026   4.319  20.004  15.432
 2314DOPC   GL127027   4.059  20.024  15.062
 2314DOPC   GL227028   3.849  19.994  15.182
 2314DOPC   C1A27029   4.009  20.074  14.632
 2314DOPC   D2A27030   3.879  20.314  14.312
 2314DOPC   C3A27031   3.409  20.364  14.282
 2314DOPC   C4A27032   3.139  20.464  13.992
 2314DOPC   C1B27033   3.789  20.404  14.922
 2314DOPC   D2B27034   3.549  20.574  14.702
 2314DOPC   C3B27035   3.659  20.764  14.282
 2314DOPC   C4B27036   3.969  20.664  13.932
 2315DOPC   NC327037  13.109   1.974  15.092
 2315DOPC   PO427038  13.419   1.904  14.872
 2315DOPC   GL127039  13.579   1.804  14.502
 2315DOPC   GL227040  13.799   2.024  14.142
 2315DOPC   C1A27041  13.449   1.514  14.202
 2315DOPC   D2A27042  13.269   1.364  13.772
 2315DOPC   C3A27043  13.149   1.354  13.392
 2315DOPC   C4A27044  13.369   1.614  13.072
 2315DOPC   C1B27045  14.229   2.034  13.872
 2315DOPC   D2B27046  14.579   2.144  13.732
 2315DOPC   C3B27047  14.529   1.974  13.262
 2315DOPC   C4B27048  14.269   1.834  12.902
 2316DOPC   NC327049  23.179  21.761  16.272
 2316DOPC   PO427050  22.989  21.941  15.862
 2316DOPC   GL127051  23.139  21.961  15.422
 2316DOPC   GL227052  23.429  21.951  15.332
 2316DOPC   C1A27053  23.089  22.041  14.972
 2316DOPC   D2A27054  22.839  21.981  14.532
 2316DOPC   C3A27055  22.599  21.731  14.232
 2316DOPC   C4A27056  22.469  21.381  14.052
 2316DOPC   C1B27057  23.539  22.381  15.112
 2316DOPC   D2B27058  23.919  22.591  15.012
 2316DOPC   C3B27059  24.369  22.371  15.122
 2316DOPC   C4B27060  24.789  22.551  15.122
 2317DOPC   NC327061   2.839  12.854  10.812
 2317DOPC   PO427062   2.599  13.044  11.182
 2317DOPC   GL127063   2.749  13.244  11.542
 2317DOPC   GL227064   2.999  13.354  11.442
 2317DOPC   C1A27065   2.879  13.124  11.902
 2317DOPC   D2A27066   3.249  13.014  12.202
 2317DOPC   C3A27067   3.279  13.144  12.582
 2317DOPC   C4A27068   3.329  13.334  13.052
 2317DOPC   C1B27069   3.099  13.674  11.702
 2317DOPC   D2B27070   2.999  14.074  12.042
 2317DOPC   C3B27071   2.869  13.924  12.472
 2317DOPC   C4B27072   2.889  13.644  12.702
 2318DOPC   NC327073   6.449  18.764  15.572
 2318DOPC   PO427074   6.379  18.344  15.412
 2318DOPC   GL127075   6.509  18.624  15.062
 2318DOPC   GL227076   6.499  18.914  15.092
 2318DOPC   C1A27077   6.489  18.794  14.572
 2318DOPC   D2A27078   6.629  18.994  14.242
 2318DOPC   C3A27079   6.599  19.334  13.882
 2318DOPC   C4A27080   6.209  19.584  13.932
 2318DOPC   C1B27081   6.479  19.214  14.812
 2318DOPC   D2B27082   6.629  19.654  14.852
 2318DOPC   C3B27083   7.029  19.844  14.722
 2318DOPC   C4B27084   7.519  19.824  14.592
 2319DOPC   NC327085   5.109   8.674  15.132
 2319DOPC   PO427086   5.339   9.004  15.062
 2319DOPC   GL127087   5.159   9.124  14.732
 2319DOPC   GL227088   4.899   8.854  14.612
 2319DOPC   C1A27089   5.189   9.064  14.232
 2319DOPC   D2A27090   5.229   9.054  13.752
 2319DOPC   C3A27091   5.189   9.454  13.552
 2319DOPC   C4A27092   4.909   9.834  13.372
 2319DOPC   C1B27093   5.239   8.604  14.452
 2319DOPC   D2B27094   5.279   8.324  14.142
 2319DOPC   C3B27095   4.929   8.084  14.062
 2319DOPC   C4B27096   4.749   7.764  13.642
 2320DOPC   NC327097  17.939   1.154  15.742
 2320DOPC   PO427098  18.199   1.454  15.622
 2320DOPC   GL127099  18.229   1.324  15.262
 2320DOPC   GL227100  18.209   1.574  15.002
 2320DOPC   C1A27101  18.439   0.894  15.062
 2320DOPC   D2A27102  18.599   0.784  14.672
 2320DOPC   C3A27103  18.809   0.454  14.582
 2320DOPC   C4A27104  18.939   0.094  14.372
 2320DOPC   C1B27105  18.409   1.244  14.772
 2320DOPC   D2B27106  18.409   1.084  14.282
 2320DOPC   C3B27107  18.159   0.764  14.062
 2320DOPC   C4B27108  17.759   0.774  14.002
 2321DOPC   NC327109   7.689  22.311   8.692
 2321DOPC   PO427110   7.839  22.361   8.272
 2321DOPC   GL127111   7.669  22.141   7.882
 2321DOPC   GL227112   7.739  21.841   7.702
 2321DOPC   C1A27113   7.619  22.241   7.332
 2321DOPC   D2A27114   7.519  22.281   6.932
 2321DOPC   C3A27115   7.359  21.891   6.782
 2321DOPC   C4A27116   6.989  21.611   6.702
 2321DOPC   C1B27117   8.059  21.611   7.372
 2321DOPC   D2B27118   8.369  21.491   7.152
 2321DOPC   C3B27119   8.359  21.511   6.722
 2321DOPC   C4B27120   8.209  21.751   6.362
 2322DOPC   NC327121   5.769  21.851  15.332
 2322DOPC   PO427122   5.309  21.751  15.382
 2322DOPC   GL127123   5.309  21.461  14.962
 2322DOPC   GL227124   5.629  21.174  14.832
 2322DOPC   C1A27125   5.179  21.114  14.602
 2322DOPC   D2A27126   5.229  21.114  14.262
 2322DOPC   C3A27127   5.299  20.864  13.962
 2322DOPC   C4A27128   5.419  20.904  13.392
 2322DOPC   C1B27129   5.679  21.004  14.442
 2322DOPC   D2B27130   5.839  20.884  14.012
 2322DOPC   C3B27131   5.689  20.524  13.772
 2322DOPC   C4B27132   5.329  20.454  13.552
 2323DOPC   NC327133  21.919  25.511  16.702
 2323DOPC   PO427134  21.909  25.531  16.242
 2323DOPC   GL127135  21.819  25.621  15.742
 2323DOPC   GL227136  22.029  25.551  15.492
 2323DOPC   C1A27137  21.509  25.581  15.472
 2323DOPC   D2A27138  21.219  25.471  15.082
 2323DOPC   C3A27139  21.059  25.041  15.032
 2323DOPC   C4A27140  20.889  24.741  15.142
 2323DOPC   C1B27141  22.039  25.241  15.202
 2323DOPC   D2B27142  21.979  25.161  14.742
 2323DOPC   C3B27143  21.809  24.861  14.662
 2323DOPC   C4B27144  21.879  24.461  14.742
 2324DOPC   NC327145   3.769   7.104  15.532
 2324DOPC   PO427146   4.029   7.374  15.422
 2324DOPC   GL127147   3.869   7.294  15.012
 2324DOPC   GL227148   3.689   7.574  14.872
 2324DOPC   C1A27149   3.669   7.154  14.612
 2324DOPC   D2A27150   3.369   6.974  14.302
 2324DOPC   C3A27151   3.399   7.044  13.812
 2324DOPC   C4A27152   3.669   7.094  13.482
 2324DOPC   C1B27153   3.589   7.574  14.402
 2324DOPC   D2B27154   3.669   7.364  14.062
 2324DOPC   C3B27155   3.889   7.574  13.872
 2324DOPC   C4B27156   4.199   7.704  13.652
 2325DOPC   NC327157  17.309  15.274  15.232
 2325DOPC   PO427158  17.649  15.534  15.432
 2325DOPC   GL127159  17.739  15.574  15.012
 2325DOPC   GL227160  17.419  15.764  15.002
 2325DOPC   C1A27161  17.779  15.434  14.672
 2325DOPC   D2A27162  17.579  15.404  14.262
 2325DOPC   C3A27163  17.829  15.264  13.962
 2325DOPC   C4A27164  18.029  15.404  13.592
 2325DOPC   C1B27165  17.519  15.854  14.622
 2325DOPC   D2B27166  17.399  15.994  14.192
 2325DOPC   C3B27167  17.209  16.424  13.892
 2325DOPC   C4B27168  17.429  16.734  13.652
 2326DOPC   NC327169  20.609  11.224  11.372
 2326DOPC   PO427170  20.919  11.174  11.722
 2326DOPC   GL127171  20.759  11.094  12.122
 2326DOPC   GL227172  20.469  10.914  12.312
 2326DOPC   C1A27173  20.759  11.154  12.672
 2326DOPC   D2A27174  20.759  11.134  13.042
 2326DOPC   C3A27175  21.079  11.204  13.182
 2326DOPC   C4A27176  21.509  11.194  13.252
 2326DOPC   C1B27177  20.169  10.634  12.472
 2326DOPC   D2B27178  20.049  10.404  12.822
 2326DOPC   C3B27179  19.689  10.264  12.942
 2326DOPC   C4B27180  19.549  10.084  12.652
 2327DOPC   NC327181   3.799   5.834  15.532
 2327DOPC   PO427182   3.919   5.884  15.162
 2327DOPC   GL127183   3.979   5.764  14.682
 2327DOPC   GL227184   3.719   5.584  14.542
 2327DOPC   C1A27185   4.219   5.774  14.272
 2327DOPC   D2A27186   4.089   5.504  13.822
 2327DOPC   C3A27187   4.369   5.764  13.522
 2327DOPC   C4A27188   4.769   5.934  13.492
 2327DOPC   C1B27189   3.709   5.284  14.232
 2327DOPC   D2B27190   3.409   4.954  14.102
 2327DOPC   C3B27191   3.019   4.914  13.872
 2327DOPC   C4B27192   2.749   4.944  13.422
 2328DOPC   NC327193  25.589   4.044  15.292
 2328DOPC   PO427194  25.209   3.754  15.262
 2328DOPC   GL127195  25.449   3.694  14.872
 2328DOPC   GL227196  25.726   3.824  14.842
 2328DOPC   C1A27197  25.509   3.524  14.382
 2328DOPC   D2A27198  25.499   3.124  14.172
 2328DOPC   C3A27199  25.109   3.164  14.082
 2328DOPC   C4A27200  25.079   3.024  13.692
 2328DOPC   C1B27201  25.656   4.124  14.492
 2328DOPC   D2B27202  25.646   4.314  14.082
 2328DOPC   C3B27203  25.309   4.564  14.022
 2328DOPC   C4B27204  24.969   4.814  13.882
 2329DOPC   NC327205   5.649  14.724  15.202
 2329DOPC   PO427206   5.909  15.014  15.372
 2329DOPC   GL127207   5.889  15.094  14.782
 2329DOPC   GL227208   5.569  14.874  14.702
 2329DOPC   C1A27209   5.959  14.794  14.452
 2329DOPC   D2A27210   5.729  14.934  14.082
 2329DOPC   C3A27211   5.539  14.674  13.792
 2329DOPC   C4A27212   5.069  14.744  13.482
 2329DOPC   C1B27213   5.269  14.574  14.562
 2329DOPC   D2B27214   4.829  14.444  14.612
 2329DOPC   C3B27215   4.579  14.644  14.302
 2329DOPC   C4B27216   4.819  14.884  13.952
 2330DOPC   NC327217  13.509  11.924  13.982
 2330DOPC   PO427218  13.849  11.744  14.102
 2330DOPC   GL127219  13.939  11.714  13.662
 2330DOPC   GL227220  14.069  11.444  13.612
 2330DOPC   C1A27221  13.989  11.924  13.232
 2330DOPC   D2A27222  14.049  12.144  12.762
 2330DOPC   C3A27223  14.089  12.064  12.402
 2330DOPC   C4A27224  13.969  12.104  12.022
 2330DOPC   C1B27225  14.249  11.064  13.372
 2330DOPC   D2B27226  14.189  10.814  13.042
 2330DOPC   C3B27227  14.349  10.884  12.632
 2330DOPC   C4B27228  14.439  10.744  12.312
 2331DOPC   NC327229   9.129   4.894  14.562
 2331DOPC   PO427230   9.269   4.534  14.582
 2331DOPC   GL127231   9.319   4.284  14.192
 2331DOPC   GL227232   9.719   4.254  14.192
 2331DOPC   C1A27233   9.169   4.314  13.762
 2331DOPC   D2A27234   9.069   4.164  13.352
 2331DOPC   C3A27235   8.779   4.384  13.042
 2331DOPC   C4A27236   8.449   4.274  13.052
 2331DOPC   C1B27237   9.769   4.214  13.702
 2331DOPC   D2B27238   9.639   4.494  13.312
 2331DOPC   C3B27239   9.469   4.394  12.842
 2331DOPC   C4B27240   9.169   4.284  12.552
 2332DOPC   NC327241   9.239   9.124  14.642
 2332DOPC   PO427242   8.989   8.774  14.422
 2332DOPC   GL127243   8.999   8.714  13.952
 2332DOPC   GL227244   9.349   8.744  14.002
 2332DOPC   C1A27245   9.109   8.794  13.522
 2332DOPC   D2A27246   9.379   8.864  13.172
 2332DOPC   C3A27247   9.199   8.994  12.782
 2332DOPC   C4A27248   8.929   8.964  12.482
 2332DOPC   C1B27249   9.519   8.514  13.672
 2332DOPC   D2B27250   9.769   8.574  13.332
 2332DOPC   C3B27251   9.839   8.314  13.162
 2332DOPC   C4B27252  10.079   8.084  12.932
 2333DOPC   NC327253   9.629   0.474  14.882
 2333DOPC   PO427254   9.349   0.824  14.802
 2333DOPC   GL127255   9.409   0.524  14.452
 2333DOPC   GL227256   9.579   0.194  14.452
 2333DOPC   C1A27257   9.299   0.534  14.032
 2333DOPC   D2A27258   8.999   0.524  13.752
 2333DOPC   C3A27259   9.019   0.414  13.272
 2333DOPC   C4A27260   8.869   0.124  13.012
 2333DOPC   C1B27261   9.539   0.054  14.042
 2333DOPC   D2B27262   9.419   0.294  13.632
 2333DOPC   C3B27263   9.489   0.324  13.162
 2333DOPC   C4B27264   9.409   0.154  12.742
 2334DOPC   NC327265  23.229   1.904  15.662
 2334DOPC   PO427266  22.819   1.754  15.632
 2334DOPC   GL127267  22.559   1.864  15.232
 2334DOPC   GL227268  22.689   1.584  15.082
 2334DOPC   C1A27269  22.429   2.004  14.792
 2334DOPC   D2A27270  22.239   1.954  14.462
 2334DOPC   C3A27271  22.619   1.874  14.212
 2334DOPC   C4A27272  22.729   1.724  13.772
 2334DOPC   C1B27273  22.699   1.554  14.632
 2334DOPC   D2B27274  22.499   1.394  14.252
 2334DOPC   C3B27275  22.349   0.994  14.142
 2334DOPC   C4B27276  22.339   0.664  14.202
 2335DOPC   NC327277  21.739   1.374  15.982
 2335DOPC   PO427278  21.799   1.594  15.722
 2335DOPC   GL127279  21.789   1.434  15.322
 2335DOPC   GL227280  21.629   1.224  15.402
 2335DOPC   C1A27281  21.719   1.444  14.912
 2335DOPC   D2A27282  21.799   1.764  14.602
 2335DOPC   C3A27283  21.939   1.574  14.252
 2335DOPC   C4A27284  22.079   1.454  13.922
 2335DOPC   C1B27285  21.269   1.334  15.232
 2335DOPC   D2B27286  20.969   1.274  14.852
 2335DOPC   C3B27287  20.939   0.844  14.652
 2335DOPC   C4B27288  21.089   0.774  14.352
 2336DOPC   NC327289  12.169  17.044  14.472
 2336DOPC   PO427290  12.429  16.764  14.332
 2336DOPC   GL127291  12.539  16.834  13.922
 2336DOPC   GL227292  12.669  17.134  14.052
 2336DOPC   C1A27293  12.439  16.744  13.462
 2336DOPC   D2A27294  12.119  16.774  13.242
 2336DOPC   C3A27295  11.849  16.524  13.012
 2336DOPC   C4A27296  11.819  16.324  12.662
 2336DOPC   C1B27297  12.409  17.304  13.612
 2336DOPC   D2B27298  12.069  17.254  13.282
 2336DOPC   C3B27299  12.019  17.564  13.022
 2336DOPC   C4B27300  12.249  17.794  12.642
 2337DOPC   NC327301  16.449  21.691  15.682
 2337DOPC   PO427302  16.759  21.501  15.672
 2337DOPC   GL127303  16.939  21.204  15.262
 2337DOPC   GL227304  16.759  21.154  15.072
 2337DOPC   C1A27305  17.339  21.034  15.152
 2337DOPC   D2A27306  17.649  20.844  14.862
 2337DOPC   C3A27307  17.869  20.554  15.062
 2337DOPC   C4A27308  18.259  20.404  14.942
 2337DOPC   C1B27309  16.619  21.094  14.602
 2337DOPC   D2B27310  16.809  20.944  14.222
 2337DOPC   C3B27311  16.559  20.884  13.942
 2337DOPC   C4B27312  16.529  20.724  13.482
 2338DOPC   NC327313  13.349   7.924  14.382
 2338DOPC   PO427314  12.919   7.904  14.382
 2338DOPC   GL127315  12.989   7.934  14.002
 2338DOPC   GL227316  12.769   7.754  13.822
 2338DOPC   C1A27317  13.219   7.854  13.652
 2338DOPC   D2A27318  13.339   7.884  13.212
 2338DOPC   C3A27319  13.009   7.984  12.962
 2338DOPC   C4A27320  12.879   7.694  12.662
 2338DOPC   C1B27321  12.849   7.684  13.392
 2338DOPC   D2B27322  12.799   7.284  13.122
 2338DOPC   C3B27323  12.959   7.204  12.722
 2338DOPC   C4B27324  13.259   7.034  12.592
 2339DOPC   NC327325  17.849  21.701  16.192
 2339DOPC   PO427326  17.599  21.651  15.832
 2339DOPC   GL127327  17.529  21.751  15.372
 2339DOPC   GL227328  17.499  21.551  15.222
 2339DOPC   C1A27329  17.329  21.831  14.882
 2339DOPC   D2A27330  17.209  21.961  14.492
 2339DOPC   C3A27331  16.959  21.611  14.312
 2339DOPC   C4A27332  16.969  21.314  13.952
 2339DOPC   C1B27333  17.579  21.401  14.902
 2339DOPC   D2B27334  17.519  21.481  14.512
 2339DOPC   C3B27335  17.569  21.381  14.122
 2339DOPC   C4B27336  17.699  20.974  13.932
 2340DOPC   NC327337  23.099  11.314  15.862
 2340DOPC   PO427338  23.419  11.264  15.572
 2340DOPC   GL127339  23.289  11.204  15.112
 2340DOPC   GL227340  23.339  10.984  15.022
 2340DOPC   C1A27341  22.979  11.094  14.712
 2340DOPC   D2A27342  22.609  11.194  14.482
 2340DOPC   C3A27343  22.299  11.504  14.472
 2340DOPC   C4A27344  22.299  11.944  14.562
 2340DOPC   C1B27345  23.299  10.754  14.602
 2340DOPC   D2B27346  23.649  10.564  14.322
 2340DOPC   C3B27347  24.049  10.704  14.242
 2340DOPC   C4B27348  24.149  11.144  14.322
 2341DOPC   NC327349  15.349  17.724  15.092
 2341DOPC   PO427350  15.289  17.324  15.052
 2341DOPC   GL127351  14.999  17.424  14.702
 2341DOPC   GL227352  15.179  17.764  14.552
 2341DOPC   C1A27353  14.869  17.394  14.302
 2341DOPC   D2A27354  14.769  17.334  13.852
 2341DOPC   C3A27355  14.809  17.114  13.412
 2341DOPC   C4A27356  14.939  17.024  12.942
 2341DOPC   C1B27357  15.139  17.744  14.092
 2341DOPC   D2B27358  15.399  17.754  13.732
 2341DOPC   C3B27359  15.649  17.544  13.502
 2341DOPC   C4B27360  15.969  17.864  13.422
 2342DOPC   NC327361   1.959  24.961  11.422
 2342DOPC   PO427362   2.409  25.161  11.452
 2342DOPC   GL127363   2.479  25.311  11.912
 2342DOPC   GL227364   2.179  25.321  11.902
 2342DOPC   C1A27365   2.269  25.051  12.302
 2342DOPC   D2A27366   2.329  24.771  12.682
 2342DOPC   C3A27367   2.619  25.021  12.932
 2342DOPC   C4A27368   2.899  25.201  13.222
 2342DOPC   C1B27369   1.939  25.421  12.272
 2342DOPC   D2B27370   2.079  25.501  12.672
 2342DOPC   C3B27371   2.189  25.191  13.022
 2342DOPC   C4B27372   2.449  25.131  13.402
 2343DOPC   NC327373   1.799   4.424  11.282
 2343DOPC   PO427374   1.769   3.904  11.372
 2343DOPC   GL127375   1.819   3.874  11.752
 2343DOPC   GL227376   1.909   3.714  11.892
 2343DOPC   C1A27377   1.909   4.084  12.182
 2343DOPC   D2A27378   1.959   3.804  12.512
 2343DOPC   C3A27379   2.189   3.464  12.682
 2343DOPC   C4A27380   2.539   3.294  12.922
 2343DOPC   C1B27381   1.729   3.414  12.032
 2343DOPC   D2B27382   1.809   3.084  12.172
 2343DOPC   C3B27383   2.249   3.204  12.262
 2343DOPC   C4B27384   2.559   3.084  12.482
 2344DOPC   NC327385  15.639  21.004  15.482
 2344DOPC   PO427386  15.889  21.354  15.512
 2344DOPC   GL127387  15.919  21.371  15.062
 2344DOPC   GL227388  16.179  21.344  14.972
 2344DOPC   C1A27389  15.789  21.631  14.622
 2344DOPC   D2A27390  15.779  21.741  14.262
 2344DOPC   C3A27391  15.889  21.451  13.992
 2344DOPC   C4A27392  15.999  21.541  13.512
 2344DOPC   C1B27393  16.139  21.274  14.532
 2344DOPC   D2B27394  16.249  20.964  14.302
 2344DOPC   C3B27395  16.109  21.034  13.842
 2344DOPC   C4B27396  15.999  20.784  13.572
 2345DOPC   NC327397  13.839  15.954  14.912
 2345DOPC   PO427398  13.519  16.264  14.942
 2345DOPC   GL127399  13.669  16.514  14.652
 2345DOPC   GL227400  13.379  16.464  14.432
 2345DOPC   C1A27401  13.809  16.654  14.322
 2345DOPC   D2A27402  14.099  16.974  14.192
 2345DOPC   C3A27403  14.159  17.204  13.832
 2345DOPC   C4A27404  14.399  17.464  13.552
 2345DOPC   C1B27405  13.449  16.584  14.012
 2345DOPC   D2B27406  13.419  16.634  13.542
 2345DOPC   C3B27407  13.689  16.894  13.272
 2345DOPC   C4B27408  13.519  17.114  12.952
 2346DOPC   NC327409  23.749  16.654  16.222
 2346DOPC   PO427410  23.449  16.584  15.862
 2346DOPC   GL127411  23.619  16.724  15.412
 2346DOPC   GL227412  23.569  17.054  15.232
 2346DOPC   C1A27413  23.729  16.644  14.902
 2346DOPC   D2A27414  23.779  16.754  14.492
 2346DOPC   C3A27415  24.139  16.424  14.202
 2346DOPC   C4A27416  24.459  16.084  14.092
 2346DOPC   C1B27417  23.669  17.474  15.252
 2346DOPC   D2B27418  23.419  17.844  15.132
 2346DOPC   C3B27419  23.409  17.794  14.662
 2346DOPC   C4B27420  23.289  17.584  14.332
 2347DOPC   NC327421  18.359  22.041  15.302
 2347DOPC   PO427422  17.979  21.941  15.612
 2347DOPC   GL127423  17.789  22.251  15.262
 2347DOPC   GL227424  17.839  21.991  15.022
 2347DOPC   C1A27425  17.669  22.721  15.092
 2347DOPC   D2A27426  17.409  22.931  14.782
 2347DOPC   C3A27427  17.399  22.911  14.432
 2347DOPC   C4A27428  17.459  23.381  14.302
 2347DOPC   C1B27429  17.699  22.011  14.532
 2347DOPC   D2B27430  17.589  22.061  14.062
 2347DOPC   C3B27431  17.159  22.351  14.142
 2347DOPC   C4B27432  17.059  22.711  14.082
 2348DOPC   NC327433  19.939  19.614  11.962
 2348DOPC   PO427434  20.049  19.474  12.322
 2348DOPC   GL127435  19.919  19.444  12.802
 2348DOPC   GL227436  19.819  19.844  12.642
 2348DOPC   C1A27437  19.739  19.394  13.252
 2348DOPC   D2A27438  19.379  19.514  13.452
 2348DOPC   C3A27439  19.329  19.664  13.972
 2348DOPC   C4A27440  18.769  19.714  13.972
 2348DOPC   C1B27441  19.619  19.804  13.072
 2348DOPC   D2B27442  19.349  20.074  13.382
 2348DOPC   C3B27443  18.969  20.114  13.102
 2348DOPC   C4B27444  18.609  20.294  13.082
 2349DOPC   NC327445   7.349  10.994  14.782
 2349DOPC   PO427446   7.119  10.544  14.942
 2349DOPC   GL127447   7.049  10.584  14.442
 2349DOPC   GL227448   7.169  10.784  14.362
 2349DOPC   C1A27449   7.049  10.634  13.912
 2349DOPC   D2A27450   7.149  10.444  13.472
 2349DOPC   C3A27451   7.249  10.004  13.342
 2349DOPC   C4A27452   7.299   9.724  13.012
 2349DOPC   C1B27453   7.199  11.114  14.012
 2349DOPC   D2B27454   7.469  11.264  13.742
 2349DOPC   C3B27455   7.619  11.214  13.332
 2349DOPC   C4B27456   7.909  11.294  13.112
 2350DOPC   NC327457  18.549   6.074  11.222
 2350DOPC   PO427458  18.039   6.094  11.222
 2350DOPC   GL127459  18.109   6.084  11.642
 2350DOPC   GL227460  17.949   6.434  11.862
 2350DOPC   C1A27461  18.199   5.994  12.102
 2350DOPC   D2A27462  18.279   5.704  12.442
 2350DOPC   C3A27463  18.159   5.784  12.852
 2350DOPC   C4A27464  18.059   5.794  13.332
 2350DOPC   C1B27465  18.299   6.504  12.082
 2350DOPC   D2B27466  18.609   6.584  12.392
 2350DOPC   C3B27467  18.649   6.624  12.852
 2350DOPC   C4B27468  18.629   6.594  13.252
 2351DOPC   NC327469   8.989   2.044  15.132
 2351DOPC   PO427470   9.139   2.234  14.812
 2351DOPC   GL127471   9.099   2.074  14.382
 2351DOPC   GL227472   8.819   2.274  14.252
 2351DOPC   C1A27473   9.379   2.214  13.972
 2351DOPC   D2A27474   9.469   2.374  13.532
 2351DOPC   C3A27475   9.479   2.164  13.132
 2351DOPC   C4A27476   9.429   2.094  12.822
 2351DOPC   C1B27477   8.879   1.974  13.862
 2351DOPC   D2B27478   8.799   1.724  13.492
 2351DOPC   C3B27479   9.109   1.714  13.112
 2351DOPC   C4B27480   9.539   1.504  13.092
 2352DOPC   NC327481  17.349   0.124  16.032
 2352DOPC   PO427482  17.729   0.284  15.882
 2352DOPC   GL127483  17.679   0.334  15.412
 2352DOPC   GL227484  17.379   0.254  15.292
 2352DOPC   C1A27485  17.869   0.274  15.062
 2352DOPC   D2A27486  18.259   0.174  14.972
 2352DOPC   C3A27487  18.379   0.124  14.592
 2352DOPC   C4A27488  18.509   0.274  14.202
 2352DOPC   C1B27489  17.479  -0.066  15.012
 2352DOPC   D2B27490  17.419  -0.176  14.532
 2352DOPC   C3B27491  17.629  -0.256  14.192
 2352DOPC   C4B27492  17.849  -0.626  14.132
 2353DOPC   NC327493  11.029  16.664  10.832
 2353DOPC   PO427494  11.299  16.854  10.812
 2353DOPC   GL127495  11.479  16.604  11.082
 2353DOPC   GL227496  11.429  16.324  11.032
 2353DOPC   C1A27497  11.669  16.614  11.422
 2353DOPC   D2A27498  11.569  16.434  11.832
 2353DOPC   C3A27499  11.819  16.114  12.232
 2353DOPC   C4A27500  12.229  16.024  12.422
 2353DOPC   C1B27501  11.529  16.134  11.312
 2353DOPC   D2B27502  11.669  15.874  11.522
 2353DOPC   C3B27503  11.449  15.954  11.902
 2353DOPC   C4B27504  11.039  15.874  12.002
 2354DOPC   NC327505  24.319  17.324  15.802
 2354DOPC   PO427506  24.019  17.444  16.002
 2354DOPC   GL127507  23.899  17.614  15.642
 2354DOPC   GL227508  24.289  17.704  15.442
 2354DOPC   C1A27509  23.749  17.914  15.442
 2354DOPC   D2A27510  23.509  18.364  15.412
 2354DOPC   C3A27511  23.229  18.324  14.962
 2354DOPC   C4A27512  23.189  18.324  14.432
 2354DOPC   C1B27513  24.099  17.644  15.122
 2354DOPC   D2B27514  24.259  17.614  14.642
 2354DOPC   C3B27515  24.379  17.374  14.382
 2354DOPC   C4B27516  24.029  17.104  14.192
 2355DOPC   NC327517  10.399  11.584  10.732
 2355DOPC   PO427518  10.779  11.664  10.792
 2355DOPC   GL127519  11.029  11.504  11.022
 2355DOPC   GL227520  11.099  11.144  10.852
 2355DOPC   C1A27521  10.959  11.544  11.542
 2355DOPC   D2A27522  11.069  11.594  11.992
 2355DOPC   C3A27523  11.269  11.964  12.162
 2355DOPC   C4A27524  11.599  12.214  12.352
 2355DOPC   C1B27525  11.159  11.064  11.332
 2355DOPC   D2B27526  11.369  11.134  11.572
 2355DOPC   C3B27527  11.449  10.724  11.842
 2355DOPC   C4B27528  11.219  10.544  12.172
 2356DOPC   NC327529   7.929   3.344  14.492
 2356DOPC   PO427530   7.489   3.534  14.652
 2356DOPC   GL127531   7.349   3.374  14.262
 2356DOPC   GL227532   7.659   3.224  14.082
 2356DOPC   C1A27533   6.989   3.404  13.892
 2356DOPC   D2A27534   6.929   3.694  13.642
 2356DOPC   C3A27535   7.019   4.154  13.692
 2356DOPC   C4A27536   7.019   4.614  13.472
 2356DOPC   C1B27537   7.829   2.944  13.742
 2356DOPC   D2B27538   7.909   2.864  13.322
 2356DOPC   C3B27539   8.259   2.864  13.162
 2356DOPC   C4B27540   8.609   2.604  13.232
 2357DOPC   NC327541  22.449  13.624  15.702
 2357DOPC   PO427542  22.439  14.054  15.722
 2357DOPC   GL127543  22.239  14.264  15.382
 2357DOPC   GL227544  22.389  14.434  15.092
 2357DOPC   C1A27545  21.909  14.104  15.112
 2357DOPC   D2A27546  21.449  14.074  15.122
 2357DOPC   C3A27547  21.249  13.944  14.732
 2357DOPC   C4A27548  20.829  13.944  14.672
 2357DOPC   C1B27549  22.249  14.444  14.662
 2357DOPC   D2B27550  21.999  14.574  14.302
 2357DOPC   C3B27551  21.719  14.364  14.082
 2357DOPC   C4B27552  21.499  14.204  13.762
 2358DOPC   NC327553  15.329   2.594  15.172
 2358DOPC   PO427554  15.389   2.124  15.052
 2358DOPC   GL127555  15.629   2.244  14.662
 2358DOPC   GL227556  15.599   2.504  14.772
 2358DOPC   C1A27557  15.639   2.044  14.202
 2358DOPC   D2A27558  15.279   1.804  13.982
 2358DOPC   C3A27559  15.559   1.494  13.672
 2358DOPC   C4A27560  15.769   1.144  13.562
 2358DOPC   C1B27561  15.569   2.604  14.292
 2358DOPC   D2B27562  15.639   2.424  13.852
 2358DOPC   C3B27563  15.529   1.984  13.572
 2358DOPC   C4B27564  15.619   1.694  13.232
 2359DOPC   NC327565  12.309  20.714  15.202
 2359DOPC   PO427566  12.029  20.924  14.882
 2359DOPC   GL127567  12.009  20.864  14.452
 2359DOPC   GL227568  11.839  20.484  14.442
 2359DOPC   C1A27569  11.969  20.784  14.002
 2359DOPC   D2A27570  11.929  20.424  13.782
 2359DOPC   C3A27571  11.649  20.324  13.412
 2359DOPC   C4A27572  11.439  20.364  13.112
 2359DOPC   C1B27573  11.559  20.434  14.132
 2359DOPC   D2B27574  11.519  20.674  13.762
 2359DOPC   C3B27575  11.859  20.944  13.522
 2359DOPC   C4B27576  12.259  21.024  13.372
 2360DOPC   NC327577  24.869   9.344  15.342
 2360DOPC   PO427578  24.759   9.694  15.402
 2360DOPC   GL127579  24.859   9.684  14.932
 2360DOPC   GL227580  25.159   9.454  14.952
 2360DOPC   C1A27581  25.019   9.924  14.592
 2360DOPC   D2A27582  24.779   9.854  14.092
 2360DOPC   C3A27583  24.979   9.924  13.702
 2360DOPC   C4A27584  24.829  10.184  13.352
 2360DOPC   C1B27585  24.859   9.434  14.502
 2360DOPC   D2B27586  24.519   9.484  14.262
 2360DOPC   C3B27587  24.249   9.884  14.242
 2360DOPC   C4B27588  24.079  10.264  14.432
 2361DOPC   NC327589  21.669   4.394  11.342
 2361DOPC   PO427590  21.899   4.334  11.712
 2361DOPC   GL127591  21.849   4.364  12.162
 2361DOPC   GL227592  21.529   4.434  12.222
 2361DOPC   C1A27593  21.879   4.274  12.642
 2361DOPC   D2A27594  21.929   4.364  13.012
 2361DOPC   C3A27595  21.919   3.924  13.152
 2361DOPC   C4A27596  21.569   3.624  13.362
 2361DOPC   C1B27597  21.339   4.454  12.572
 2361DOPC   D2B27598  21.409   4.464  13.012
 2361DOPC   C3B27599  21.089   4.614  13.272
 2361DOPC   C4B27600  20.779   5.004  13.302
 2362DOPC   NC327601  11.599   7.654  14.532
 2362DOPC   PO427602  11.669   7.134  14.522
 2362DOPC   GL127603  11.739   7.254  14.042
 2362DOPC   GL227604  11.879   7.484  14.052
 2362DOPC   C1A27605  11.609   7.014  13.762
 2362DOPC   D2A27606  11.649   6.824  13.402
 2362DOPC   C3A27607  11.989   6.844  13.052
 2362DOPC   C4A27608  12.189   6.744  12.642
 2362DOPC   C1B27609  11.909   7.824  13.732
 2362DOPC   D2B27610  11.889   8.064  13.382
 2362DOPC   C3B27611  12.189   8.364  13.142
 2362DOPC   C4B27612  12.439   8.324  12.852
 2363DOPC   NC327613  14.289  14.754  10.822
 2363DOPC   PO427614  14.579  15.074  10.632
 2363DOPC   GL127615  14.679  14.914  11.062
 2363DOPC   GL227616  14.599  15.184  11.222
 2363DOPC   C1A27617  14.569  14.754  11.512
 2363DOPC   D2A27618  14.559  14.684  11.942
 2363DOPC   C3A27619  14.719  15.044  12.052
 2363DOPC   C4A27620  15.079  15.104  12.292
 2363DOPC   C1B27621  14.239  15.214  11.442
 2363DOPC   D2B27622  14.119  15.574  11.762
 2363DOPC   C3B27623  13.889  15.454  12.172
 2363DOPC   C4B27624  13.969  15.374  12.772
 2364DOPC   NC327625  24.389   3.894  15.222
 2364DOPC   PO427626  24.319   3.414  15.322
 2364DOPC   GL127627  24.539   3.504  14.912
 2364DOPC   GL227628  24.899   3.654  14.922
 2364DOPC   C1A27629  24.429   3.424  14.532
 2364DOPC   D2A27630  24.099   3.244  14.252
 2364DOPC   C3A27631  23.689   3.384  14.442
 2364DOPC   C4A27632  23.559   3.404  14.812
 2364DOPC   C1B27633  24.939   3.804  14.582
 2364DOPC   D2B27634  24.899   3.574  14.162
 2364DOPC   C3B27635  25.209   3.584  13.762
 2364DOPC   C4B27636  25.469   3.724  13.422
 2365DOPC   NC327637   6.159  11.534  15.032
 2365DOPC   PO427638   5.939  11.084  14.932
 2365DOPC   GL127639   5.999  11.374  14.592
 2365DOPC   GL227640   5.679  11.484  14.542
 2365DOPC   C1A27641   6.079  11.454  14.222
 2365DOPC   D2A27642   6.069  11.594  13.832
 2365DOPC   C3A27643   5.719  11.994  13.712
 2365DOPC   C4A27644   5.279  11.934  13.542
 2365DOPC   C1B27645   5.649  11.934  14.352
 2365DOPC   D2B27646   5.519  12.434  14.132
 2365DOPC   C3B27647   5.849  12.564  13.812
 2365DOPC   C4B27648   6.079  12.824  13.632
 2366DOPC   NC327649  20.089   7.834  15.232
 2366DOPC   PO427650  20.059   8.124  14.932
 2366DOPC   GL127651  20.359   7.774  14.812
 2366DOPC   GL227652  20.689   7.884  14.992
 2366DOPC   C1A27653  20.609   7.624  14.532
 2366DOPC   D2A27654  20.689   7.864  14.162
 2366DOPC   C3A27655  20.979   8.154  14.282
 2366DOPC   C4A27656  20.929   8.494  14.492
 2366DOPC   C1B27657  20.619   8.144  14.602
 2366DOPC   D2B27658  20.469   8.424  14.302
 2366DOPC   C3B27659  20.619   8.354  13.902
 2366DOPC   C4B27660  20.959   8.184  13.782
 2367DOPC   NC327661   5.529  18.834  14.982
 2367DOPC   PO427662   5.649  18.384  14.912
 2367DOPC   GL127663   5.429  18.264  14.482
 2367DOPC   GL227664   5.239  17.994  14.552
 2367DOPC   C1A27665   5.369  18.554  14.112
 2367DOPC   D2A27666   5.109  18.454  13.652
 2367DOPC   C3A27667   4.759  18.074  13.592
 2367DOPC   C4A27668   4.609  17.754  13.632
 2367DOPC   C1B27669   4.999  18.234  14.202
 2367DOPC   D2B27670   4.739  18.464  14.292
 2367DOPC   C3B27671   4.469  18.614  13.992
 2367DOPC   C4B27672   4.059  18.744  13.962
 2368DOPC   NC327673   9.899  12.684  10.482
 2368DOPC   PO427674   9.939  12.334  10.552
 2368DOPC   GL127675   9.989  12.364  11.002
 2368DOPC   GL227676   9.919  12.594  11.142
 2368DOPC   C1A27677  10.289  12.424  11.392
 2368DOPC   D2A27678  10.629  12.284  11.582
 2368DOPC   C3A27679  10.669  11.904  11.692
 2368DOPC   C4A27680  10.439  11.564  11.552
 2368DOPC   C1B27681   9.799  12.334  11.522
 2368DOPC   D2B27682   9.889  12.494  11.942
 2368DOPC   C3B27683   9.749  12.284  12.302
 2368DOPC   C4B27684   9.379  12.354  12.552
 2369DOPC   NC327685  12.009   4.754  14.262
 2369DOPC   PO427686  12.409   5.004  14.362
 2369DOPC   GL127687  12.429   4.924  13.982
 2369DOPC   GL227688  12.739   4.904  14.032
 2369DOPC   C1A27689  12.419   5.094  13.682
 2369DOPC   D2A27690  12.309   5.304  13.282
 2369DOPC   C3A27691  12.529   5.564  12.812
 2369DOPC   C4A27692  12.329   5.514  12.482
 2369DOPC   C1B27693  12.839   4.884  13.622
 2369DOPC   D2B27694  12.679   4.934  13.152
 2369DOPC   C3B27695  12.699   4.664  12.922
 2369DOPC   C4B27696  12.739   4.214  12.882
 2370DOPC   NC327697  19.529   6.504  15.312
 2370DOPC   PO427698  19.219   6.724  15.252
 2370DOPC   GL127699  19.159   6.664  14.852
 2370DOPC   GL227700  19.169   7.024  14.812
 2370DOPC   C1A27701  19.049   6.564  14.432
 2370DOPC   D2A27702  19.259   6.244  14.132
 2370DOPC   C3A27703  19.179   6.134  13.682
 2370DOPC   C4A27704  18.889   6.104  13.242
 2370DOPC   C1B27705  19.439   7.114  14.472
 2370DOPC   D2B27706  19.539   7.474  14.232
 2370DOPC   C3B27707  19.829   7.614  14.082
 2370DOPC   C4B27708  19.999   7.484  13.752
 2371DOPC   NC327709   3.779  21.164  15.812
 2371DOPC   PO427710   3.629  20.824  15.522
 2371DOPC   GL127711   3.729  20.834  15.162
 2371DOPC   GL227712   4.089  20.834  15.002
 2371DOPC   C1A27713   3.599  21.174  14.742
 2371DOPC   D2A27714   3.309  21.531  14.652
 2371DOPC   C3A27715   3.019  21.491  14.372
 2371DOPC   C4A27716   2.809  21.084  14.152
 2371DOPC   C1B27717   4.109  20.624  14.632
 2371DOPC   D2B27718   4.329  20.784  14.272
 2371DOPC   C3B27719   4.519  20.824  13.832
 2371DOPC   C4B27720   4.569  21.054  13.502
 2372DOPC   NC327721   6.209  13.584  14.902
 2372DOPC   PO427722   6.589  13.794  14.692
 2372DOPC   GL127723   6.599  13.744  14.262
 2372DOPC   GL227724   6.859  13.904  14.082
 2372DOPC   C1A27725   6.719  13.464  13.992
 2372DOPC   D2A27726   6.949  13.104  13.792
 2372DOPC   C3A27727   7.019  13.134  13.342
 2372DOPC   C4A27728   7.269  13.044  13.022
 2372DOPC   C1B27729   6.769  13.994  13.652
 2372DOPC   D2B27730   7.079  13.914  13.332
 2372DOPC   C3B27731   7.359  13.514  13.312
 2372DOPC   C4B27732   7.519  13.244  13.672
 2373DOPC   NC327733  21.209  13.154  15.552
 2373DOPC   PO427734  21.289  12.784  15.462
 2373DOPC   GL127735  21.569  12.674  15.112
 2373DOPC   GL227736  21.559  12.364  14.932
 2373DOPC   C1A27737  21.989  12.694  14.812
 2373DOPC   D2A27738  22.079  12.594  14.392
 2373DOPC   C3A27739  22.169  12.864  13.992
 2373DOPC   C4A27740  21.929  13.064  13.742
 2373DOPC   C1B27741  21.509  12.474  14.412
 2373DOPC   D2B27742  21.339  12.784  14.072
 2373DOPC   C3B27743  21.009  12.964  14.182
 2373DOPC   C4B27744  20.739  12.874  14.502
 2374DOPC   NC327745   2.179  17.424  15.672
 2374DOPC   PO427746   1.729  17.554  15.782
 2374DOPC   GL127747   1.799  17.604  15.372
 2374DOPC   GL227748   2.009  17.714  15.262
 2374DOPC   C1A27749   1.679  17.514  14.922
 2374DOPC   D2A27750   1.629  17.564  14.462
 2374DOPC   C3A27751   1.969  17.754  14.172
 2374DOPC   C4A27752   2.419  17.804  13.922
 2374DOPC   C1B27753   2.019  17.854  14.832
 2374DOPC   D2B27754   2.219  18.094  14.472
 2374DOPC   C3B27755   2.169  18.284  14.132
 2374DOPC   C4B27756   2.389  18.294  13.762
 2375DOPC   NC327757   5.919   5.554  10.892
 2375DOPC   PO427758   5.669   5.884  11.002
 2375DOPC   GL127759   5.919   5.754  11.372
 2375DOPC   GL227760   5.819   5.524  11.622
 2375DOPC   C1A27761   6.179   6.024  11.762
 2375DOPC   D2A27762   6.249   5.974  12.122
 2375DOPC   C3A27763   6.299   6.174  12.442
 2375DOPC   C4A27764   6.579   6.344  12.762
 2375DOPC   C1B27765   5.879   5.584  12.072
 2375DOPC   D2B27766   5.939   5.864  12.492
 2375DOPC   C3B27767   5.579   5.834  12.712
 2375DOPC   C4B27768   5.219   5.944  12.642
 2376DOPC   NC327769   9.439  16.694  14.622
 2376DOPC   PO427770   9.879  16.974  14.702
 2376DOPC   GL127771   9.779  16.934  14.342
 2376DOPC   GL227772   9.869  16.614  14.342
 2376DOPC   C1A27773  10.029  17.034  14.002
 2376DOPC   D2A27774  10.159  16.884  13.552
 2376DOPC   C3A27775   9.909  16.644  13.352
 2376DOPC   C4A27776   9.649  16.614  12.922
 2376DOPC   C1B27777   9.979  16.224  14.332
 2376DOPC   D2B27778  10.119  15.834  14.222
 2376DOPC   C3B27779  10.119  16.074  13.772
 2376DOPC   C4B27780   9.999  16.174  13.412
 2377DOPC   NC327781  23.579   3.984  15.622
 2377DOPC   PO427782  23.439   3.614  15.452
 2377DOPC   GL127783  23.239   3.694  15.042
 2377DOPC   GL227784  22.949   3.744  15.142
 2377DOPC   C1A27785  23.099   3.404  14.712
 2377DOPC   D2A27786  23.139   3.134  14.442
 2377DOPC   C3A27787  23.399   3.074  14.152
 2377DOPC   C4A27788  23.699   2.844  13.952
 2377DOPC   C1B27789  22.809   4.014  14.692
 2377DOPC   D2B27790  23.069   3.954  14.412
 2377DOPC   C3B27791  23.279   3.554  14.222
 2377DOPC   C4B27792  23.629   3.434  13.942
 2378DOPC   NC327793   1.259   0.524  16.032
 2378DOPC   PO427794   0.949   0.374  15.662
 2378DOPC   GL127795   0.779   0.504  15.302
 2378DOPC   GL227796   0.729   0.834  15.262
 2378DOPC   C1A27797   0.789   0.374  14.912
 2378DOPC   D2A27798   0.609   0.554  14.482
 2378DOPC   C3A27799   0.869   0.424  14.152
 2378DOPC   C4A27800   1.279   0.264  13.962
 2378DOPC   C1B27801   0.479   0.824  14.872
 2378DOPC   D2B27802   0.209   1.014  14.582
 2378DOPC   C3B27803   0.129   0.874  14.192
 2378DOPC   C4B27804  -0.089   0.554  14.062
 2379DOPC   NC327805   9.819  10.094  10.942
 2379DOPC   PO427806   9.709  10.404  11.042
 2379DOPC   GL127807   9.799  10.574  11.382
 2379DOPC   GL227808   9.629  10.294  11.532
 2379DOPC   C1A27809  10.129  10.664  11.622
 2379DOPC   D2A27810  10.319  10.674  12.032
 2379DOPC   C3A27811  10.039  10.594  12.372
 2379DOPC   C4A27812   9.769  10.764  12.632
 2379DOPC   C1B27813   9.599  10.104  11.872
 2379DOPC   D2B27814   9.479   9.644  12.072
 2379DOPC   C3B27815   9.579   9.804  12.472
 2379DOPC   C4B27816   9.469   9.794  12.882
 2380DOPC   NC327817  17.259  15.494  11.762
 2380DOPC   PO427818  17.379  15.214  11.412
 2380DOPC   GL127819  17.279  14.974  11.862
 2380DOPC   GL227820  17.329  15.144  12.162
 2380DOPC   C1A27821  16.979  14.664  12.012
 2380DOPC   D2A27822  16.959  14.204  12.042
 2380DOPC   C3A27823  16.719  14.104  12.332
 2380DOPC   C4A27824  16.779  14.174  12.762
 2380DOPC   C1B27825  17.239  15.444  12.472
 2380DOPC   D2B27826  17.579  15.604  12.822
 2380DOPC   C3B27827  17.459  15.704  13.272
 2380DOPC   C4B27828  17.239  15.954  13.482
 2381DOPC   NC327829   8.609   8.394  14.392
 2381DOPC   PO427830   8.249   8.644  14.472
 2381DOPC   GL127831   8.139   8.294  14.122
 2381DOPC   GL227832   8.269   7.954  14.282
 2381DOPC   C1A27833   8.079   8.394  13.712
 2381DOPC   D2A27834   8.059   8.634  13.302
 2381DOPC   C3A27835   7.829   9.074  13.412
 2381DOPC   C4A27836   7.529   9.294  13.692
 2381DOPC   C1B27837   8.429   7.884  13.982
 2381DOPC   D2B27838   8.699   7.794  13.672
 2381DOPC   C3B27839   8.449   8.084  13.392
 2381DOPC   C4B27840   8.379   8.414  13.022
 2382DOPC   NC327841  19.449  20.924  16.132
 2382DOPC   PO427842  19.309  21.314  15.942
 2382DOPC   GL127843  19.419  21.154  15.502
 2382DOPC   GL227844  19.219  20.954  15.212
 2382DOPC   C1A27845  19.739  21.034  15.152
 2382DOPC   D2A27846  20.099  21.114  15.022
 2382DOPC   C3A27847  20.229  21.371  14.742
 2382DOPC   C4A27848  19.989  21.661  14.532
 2382DOPC   C1B27849  19.319  20.854  14.772
 2382DOPC   D2B27850  19.469  20.864  14.312
 2382DOPC   C3B27851  19.709  21.114  14.252
 2382DOPC   C4B27852  20.159  21.174  14.282
 2383DOPC   NC327853   9.809  10.244  14.312
 2383DOPC   PO427854   9.389  10.084  14.342
 2383DOPC   GL127855   9.459  10.464  14.062
 2383DOPC   GL227856   9.309  10.744  14.002
 2383DOPC   C1A27857   9.589  10.454  13.612
 2383DOPC   D2A27858   9.429  10.084  13.352
 2383DOPC   C3A27859   9.679   9.614  13.292
 2383DOPC   C4A27860   9.659   9.204  13.452
 2383DOPC   C1B27861   9.259  10.864  13.602
 2383DOPC   D2B27862   8.889  10.854  13.172
 2383DOPC   C3B27863   8.819  11.334  12.982
 2383DOPC   C4B27864   8.609  11.614  12.742
 2384DOPC   NC327865  14.779  12.744  14.072
 2384DOPC   PO427866  14.389  12.714  13.762
 2384DOPC   GL127867  14.419  12.644  13.322
 2384DOPC   GL227868  14.549  12.424  13.212
 2384DOPC   C1A27869  14.259  12.584  12.842
 2384DOPC   D2A27870  14.069  12.594  12.412
 2384DOPC   C3A27871  13.669  12.364  12.362
 2384DOPC   C4A27872  13.479  12.204  11.982
 2384DOPC   C1B27873  14.939  12.284  12.942
 2384DOPC   D2B27874  15.179  11.994  12.782
 2384DOPC   C3B27875  15.039  11.824  12.382
 2384DOPC   C4B27876  15.079  11.834  11.952
 2385DOPC   NC327877   3.119   1.894  15.232
 2385DOPC   PO427878   3.589   1.994  15.342
 2385DOPC   GL127879   3.509   1.944  14.902
 2385DOPC   GL227880   3.639   2.244  14.672
 2385DOPC   C1A27881   3.309   1.684  14.582
 2385DOPC   D2A27882   3.109   1.324  14.532
 2385DOPC   C3A27883   2.679   1.284  14.282
 2385DOPC   C4A27884   2.579   1.034  13.882
 2385DOPC   C1B27885   3.629   2.104  14.262
 2385DOPC   D2B27886   3.459   1.694  14.052
 2385DOPC   C3B27887   3.269   1.674  13.602
 2385DOPC   C4B27888   2.909   1.424  13.642
 2386DOPC   NC327889   6.209  24.781  15.162
 2386DOPC   PO427890   6.409  24.421  15.282
 2386DOPC   GL127891   6.599  24.311  14.922
 2386DOPC   GL227892   6.609  24.021  14.742
 2386DOPC   C1A27893   6.529  24.471  14.522
 2386DOPC   D2A27894   6.799  24.741  14.152
 2386DOPC   C3A27895   6.989  24.511  13.722
 2386DOPC   C4A27896   7.289  24.641  13.412
 2386DOPC   C1B27897   6.319  23.841  14.372
 2386DOPC   D2B27898   6.169  24.181  14.142
 2386DOPC   C3B27899   5.969  24.191  13.702
 2386DOPC   C4B27900   5.839  24.371  13.292
 2387DOPC   NC327901  15.599  13.534  14.202
 2387DOPC   PO427902  15.969  13.344  14.302
 2387DOPC   GL127903  15.989  13.474  13.832
 2387DOPC   GL227904  15.899  13.484  13.592
 2387DOPC   C1A27905  16.299  13.834  13.722
 2387DOPC   D2A27906  16.209  14.144  13.462
 2387DOPC   C3A27907  16.579  14.214  13.272
 2387DOPC   C4A27908  16.799  14.574  13.052
 2387DOPC   C1B27909  15.769  13.944  13.572
 2387DOPC   D2B27910  15.779  14.364  13.552
 2387DOPC   C3B27911  15.729  14.794  13.502
 2387DOPC   C4B27912  15.539  15.174  13.762
 2388DOPC   NC327913   6.349   6.914  15.642
 2388DOPC   PO427914   6.419   7.134  15.182
 2388DOPC   GL127915   6.499   7.154  14.692
 2388DOPC   GL227916   6.689   7.024  14.492
 2388DOPC   C1A27917   6.409   7.444  14.412
 2388DOPC   D2A27918   6.389   7.734  14.042
 2388DOPC   C3A27919   6.679   7.994  13.852
 2388DOPC   C4A27920   6.689   8.384  13.542
 2388DOPC   C1B27921   6.919   6.604  14.392
 2388DOPC   D2B27922   7.049   6.134  14.302
 2388DOPC   C3B27923   7.289   6.094  14.002
 2388DOPC   C4B27924   7.649   6.284  13.742
 2389DOPC   NC327925   0.579  24.111  15.602
 2389DOPC   PO427926   1.009  24.061  15.542
 2389DOPC   GL127927   0.879  24.181  15.212
 2389DOPC   GL227928   0.949  24.551  15.152
 2389DOPC   C1A27929   1.009  24.181  14.802
 2389DOPC   D2A27930   1.259  24.301  14.572
 2389DOPC   C3A27931   1.229  24.661  14.312
 2389DOPC   C4A27932   0.999  25.011  14.162
 2389DOPC   C1B27933   0.879  24.721  14.682
 2389DOPC   D2B27934   0.789  24.431  14.342
 2389DOPC   C3B27935   0.299  24.431  14.392
 2389DOPC   C4B27936  -0.219  24.551  14.392
 2390DOPC   NC327937  17.559  12.414  15.092
 2390DOPC   PO427938  17.939  12.694  15.142
 2390DOPC   GL127939  18.119  12.894  14.722
 2390DOPC   GL227940  17.859  12.564  14.562
 2390DOPC   C1A27941  18.379  12.974  14.332
 2390DOPC   D2A27942  18.589  12.674  14.172
 2390DOPC   C3A27943  18.979  12.634  14.052
 2390DOPC   C4A27944  19.359  12.684  13.962
 2390DOPC   C1B27945  17.919  12.324  14.242
 2390DOPC   D2B27946  17.899  11.984  13.972
 2390DOPC   C3B27947  18.289  11.984  13.632
 2390DOPC   C4B27948  18.719  11.944  13.372
 2391DOPC   NC327949   1.839  23.031  11.382
 2391DOPC   PO427950   1.739  23.091  11.822
 2391DOPC   GL127951   1.799  23.151  12.272
 2391DOPC   GL227952   1.559  23.331  12.382
 2391DOPC   C1A27953   2.219  23.221  12.542
 2391DOPC   D2A27954   2.539  23.021  12.892
 2391DOPC   C3A27955   2.689  23.091  13.332
 2391DOPC   C4A27956   2.899  23.311  13.672
 2391DOPC   C1B27957   1.799  23.451  12.782
 2391DOPC   D2B27958   1.749  23.461  13.312
 2391DOPC   C3B27959   1.859  23.061  13.602
 2391DOPC   C4B27960   2.229  22.821  13.712
 2392DOPC   NC327961  24.799   5.834  15.452
 2392DOPC   PO427962  25.129   6.014  15.392
 2392DOPC   GL127963  25.099   5.884  15.002
 2392DOPC   GL227964  24.939   6.064  14.902
 2392DOPC   C1A27965  25.199   5.784  14.592
 2392DOPC   D2A27966  25.419   6.074  14.212
 2392DOPC   C3A27967  25.459   6.454  14.012
 2392DOPC   C4A27968  25.489   6.824  13.962
 2392DOPC   C1B27969  24.839   6.074  14.442
 2392DOPC   D2B27970  24.979   6.274  14.162
 2392DOPC   C3B27971  25.169   6.104  13.762
 2392DOPC   C4B27972  25.159   6.064  13.272
 2393DOPC   NC327973  21.569  13.474  15.042
 2393DOPC   PO427974  21.139  13.544  15.272
 2393DOPC   GL127975  20.999  13.464  14.892
 2393DOPC   GL227976  20.739  13.184  14.872
 2393DOPC   C1A27977  20.989  13.454  14.432
 2393DOPC   D2A27978  20.889  13.474  14.032
 2393DOPC   C3A27979  21.059  13.314  13.702
 2393DOPC   C4A27980  21.269  13.344  13.302
 2393DOPC   C1B27981  20.509  13.354  14.542
 2393DOPC   D2B27982  20.539  13.164  14.142
 2393DOPC   C3B27983  20.569  13.244  13.732
 2393DOPC   C4B27984  20.749  13.204  13.272
 2394DOPC   NC327985  15.299   0.064  16.122
 2394DOPC   PO427986  15.349   0.254  15.642
 2394DOPC   GL127987  15.339   0.544  15.192
 2394DOPC   GL227988  15.609   0.514  15.012
 2394DOPC   C1A27989  15.209   0.704  14.802
 2394DOPC   D2A27990  15.209   0.694  14.382
 2394DOPC   C3A27991  14.989   0.954  14.022
 2394DOPC   C4A27992  15.039   1.334  13.772
 2394DOPC   C1B27993  15.489   0.334  14.682
 2394DOPC   D2B27994  15.349   0.224  14.322
 2394DOPC   C3B27995  14.919   0.064  14.172
 2394DOPC   C4B27996  14.929  -0.336  13.812
 2395DOPC   NC327997   9.779  20.404  14.872
 2395DOPC   PO427998  10.189  20.154  14.952
 2395DOPC   GL127999  10.129  20.384  14.572
 2395DOPC   GL228000  10.009  20.154  14.332
 2395DOPC   C1A28001  10.139  20.564  14.202
 2395DOPC   D2A28002  10.109  20.984  14.002
 2395DOPC   C3A28003   9.839  21.334  14.272
 2395DOPC   C4A28004   9.729  21.541  14.622
 2395DOPC   C1B28005  10.019  20.204  13.922
 2395DOPC   D2B28006   9.979  20.124  13.412
 2395DOPC   C3B28007   9.869  19.714  13.332
 2395DOPC   C4B28008   9.609  19.444  13.462
 2396DOPC   NC328009  22.969   3.714  15.662
 2396DOPC   PO428010  23.129   4.144  15.492
 2396DOPC   GL128011  23.209   4.314  15.092
 2396DOPC   GL228012  23.569   4.194  15.082
 2396DOPC   C1A28013  23.189   4.354  14.732
 2396DOPC   D2A28014  23.159   4.444  14.272
 2396DOPC   C3A28015  23.019   4.334  13.882
 2396DOPC   C4A28016  22.839   4.204  13.492
 2396DOPC   C1B28017  23.609   3.974  14.822
 2396DOPC   D2B28018  23.629   3.834  14.382
 2396DOPC   C3B28019  23.999   3.844  14.202
 2396DOPC   C4B28020  24.429   3.654  14.092
 2397DOPC   NC328021  25.469   9.574  15.392
 2397DOPC   PO428022  25.696   9.374  15.322
 2397DOPC   GL128023  25.646   9.404  14.882
 2397DOPC   GL228024  25.826   9.394  14.522
 2397DOPC   C1A28025  25.419   9.664  14.532
 2397DOPC   D2A28026  25.179   9.534  14.142
 2397DOPC   C3A28027  25.399   9.384  13.792
 2397DOPC   C4A28028  25.159   9.584  13.442
 2397DOPC   C1B28029  25.826   9.004  14.402
 2397DOPC   D2B28030  25.846   8.854  13.952
 2397DOPC   C3B28031  25.619   8.924  13.582
 2397DOPC   C4B28032  25.319   8.894  13.312
 2398DOPC   NC328033  18.369   7.084  15.362
 2398DOPC   PO428034  18.439   7.394  15.062
 2398DOPC   GL128035  18.769   7.374  14.712
 2398DOPC   GL228036  19.019   7.484  14.502
 2398DOPC   C1A28037  18.859   7.024  14.442
 2398DOPC   D2A28038  18.839   7.114  14.032
 2398DOPC   C3A28039  18.529   7.004  13.702
 2398DOPC   C4A28040  18.369   7.244  13.332
 2398DOPC   C1B28041  19.079   7.634  14.042
 2398DOPC   D2B28042  19.139   7.734  13.662
 2398DOPC   C3B28043  19.429   7.674  13.292
 2398DOPC   C4B28044  19.759   7.724  13.172
 2399DOPC   NC328045   6.889  -0.586  11.582
 2399DOPC   PO428046   7.179  -0.236  11.332
 2399DOPC   GL128047   7.409   0.034  11.692
 2399DOPC   GL228048   7.719   0.094  11.782
 2399DOPC   C1A28049   7.409   0.284  12.142
 2399DOPC   D2A28050   7.699   0.244  12.492
 2399DOPC   C3A28051   7.829   0.574  12.762
 2399DOPC   C4A28052   7.569   0.774  13.052
 2399DOPC   C1B28053   7.929  -0.036  12.182
 2399DOPC   D2B28054   7.829  -0.246  12.492
 2399DOPC   C3B28055   8.029  -0.366  12.872
 2399DOPC   C4B28056   8.179  -0.296  13.282
 2400DOPC   NC328057  15.529   1.244  11.462
 2400DOPC   PO428058  15.449   0.824  11.592
 2400DOPC   GL128059  15.339   0.944  12.032
 2400DOPC   GL228060  15.569   1.254  12.102
 2400DOPC   C1A28061  15.179   1.064  12.452
 2400DOPC   D2A28062  15.139   1.104  12.912
 2400DOPC   C3A28063  15.409   0.824  13.222
 2400DOPC   C4A28064  15.699   0.664  13.482
 2400DOPC   C1B28065  15.659   1.174  12.452
 2400DOPC   D2B28066  15.579   0.824  12.672
 2400DOPC   C3B28067  15.669   0.444  12.942
 2400DOPC   C4B28068  15.709   0.064  12.972
 2401DOPC   NC328069   4.279  14.084  15.382
 2401DOPC   PO428070   3.879  13.784  15.342
 2401DOPC   GL128071   3.869  13.884  14.832
 2401DOPC   GL228072   3.819  14.244  14.712
 2401DOPC   C1A28073   3.999  13.724  14.452
 2401DOPC   D2A28074   4.039  13.834  14.022
 2401DOPC   C3A28075   4.369  14.034  13.832
 2401DOPC   C4A28076   4.449  14.534  13.842
 2401DOPC   C1B28077   3.839  14.594  14.512
 2401DOPC   D2B28078   4.029  14.814  14.172
 2401DOPC   C3B28079   3.779  15.254  13.932
 2401DOPC   C4B28080   3.839  15.704  13.812
 2402DOPC   NC328081   2.649  15.054  15.262
 2402DOPC   PO428082   2.509  14.564  15.282
 2402DOPC   GL128083   2.449  14.604  14.952
 2402DOPC   GL228084   2.589  14.884  14.752
 2402DOPC   C1A28085   2.329  14.434  14.582
 2402DOPC   D2A28086   2.239  14.344  14.182
 2402DOPC   C3A28087   2.339  14.064  13.942
 2402DOPC   C4A28088   2.259  13.924  13.542
 2402DOPC   C1B28089   2.819  14.704  14.422
 2402DOPC   D2B28090   2.929  14.274  14.172
 2402DOPC   C3B28091   3.129  14.364  13.812
 2402DOPC   C4B28092   3.469  14.374  13.522
 2403DOPC   NC328093   5.059  20.314  11.212
 2403DOPC   PO428094   5.109  20.214  11.752
 2403DOPC   GL128095   4.969  19.824  12.002
 2403DOPC   GL228096   5.079  19.554  11.872
 2403DOPC   C1A28097   4.839  19.704  12.352
 2403DOPC   D2A28098   4.639  19.754  12.712
 2403DOPC   C3A28099   4.939  20.114  12.862
 2403DOPC   C4A28100   5.289  20.014  13.132
 2403DOPC   C1B28101   5.329  19.604  12.292
 2403DOPC   D2B28102   5.709  19.424  12.492
 2403DOPC   C3B28103   5.949  19.374  12.782
 2403DOPC   C4B28104   6.259  19.424  13.012
 2404DOPC   NC328105   3.029  14.604  15.022
 2404DOPC   PO428106   3.389  14.364  14.942
 2404DOPC   GL128107   3.299  14.514  14.502
 2404DOPC   GL228108   3.299  14.824  14.512
 2404DOPC   C1A28109   3.519  14.604  14.082
 2404DOPC   D2A28110   3.719  14.794  13.762
 2404DOPC   C3A28111   4.039  14.564  13.512
 2404DOPC   C4A28112   3.979  13.994  13.482
 2404DOPC   C1B28113   3.039  15.194  14.542
 2404DOPC   D2B28114   3.029  15.454  14.242
 2404DOPC   C3B28115   3.339  15.514  13.902
 2404DOPC   C4B28116   3.589  15.434  13.452
 2405DOPC   NC328117  23.599  14.734  15.712
 2405DOPC   PO428118  23.949  14.424  15.892
 2405DOPC   GL128119  23.829  14.344  15.432
 2405DOPC   GL228120  23.939  14.614  15.332
 2405DOPC   C1A28121  23.779  14.274  14.972
 2405DOPC   D2A28122  23.639  14.444  14.502
 2405DOPC   C3A28123  23.559  14.914  14.392
 2405DOPC   C4A28124  23.609  15.384  14.552
 2405DOPC   C1B28125  24.189  14.784  15.012
 2405DOPC   D2B28126  24.109  14.654  14.582
 2405DOPC   C3B28127  24.029  14.994  14.302
 2405DOPC   C4B28128  24.419  15.124  14.242
 2406DOPC   NC328129  14.499  22.411  15.382
 2406DOPC   PO428130  14.019  22.481  15.302
 2406DOPC   GL128131  14.189  22.501  14.862
 2406DOPC   GL228132  14.459  22.281  14.902
 2406DOPC   C1A28133  13.989  22.341  14.532
 2406DOPC   D2A28134  14.009  22.151  14.132
 2406DOPC   C3A28135  13.979  22.361  13.682
 2406DOPC   C4A28136  14.239  22.551  13.312
 2406DOPC   C1B28137  14.429  22.091  14.592
 2406DOPC   D2B28138  14.479  22.061  14.142
 2406DOPC   C3B28139  14.489  22.451  13.802
 2406DOPC   C4B28140  14.239  22.801  13.862
 2407DOPC   NC328141  20.219  10.254  11.202
 2407DOPC   PO428142  19.919  10.064  11.342
 2407DOPC   GL128143  19.839  10.044  11.692
 2407DOPC   GL228144  19.929  10.284  11.932
 2407DOPC   C1A28145  20.229   9.844  11.972
 2407DOPC   D2A28146  20.239   9.624  12.252
 2407DOPC   C3A28147  20.669   9.634  12.542
 2407DOPC   C4A28148  20.939   9.644  12.892
 2407DOPC   C1B28149  20.019  10.184  12.352
 2407DOPC   D2B28150  19.959   9.804  12.632
 2407DOPC   C3B28151  20.199   9.524  12.982
 2407DOPC   C4B28152  20.199   9.104  13.052
 2408DOPC   NC328153   5.009  24.821  15.002
 2408DOPC   PO428154   4.899  25.271  15.072
 2408DOPC   GL128155   4.989  25.301  14.672
 2408DOPC   GL228156   4.929  24.931  14.522
 2408DOPC   C1A28157   5.169  25.391  14.192
 2408DOPC   D2A28158   5.089  25.271  13.732
 2408DOPC   C3A28159   4.699  25.371  13.572
 2408DOPC   C4A28160   4.399  25.411  13.232
 2408DOPC   C1B28161   4.999  24.471  14.352
 2408DOPC   D2B28162   5.069  24.181  14.022
 2408DOPC   C3B28163   5.069  24.211  13.542
 2408DOPC   C4B28164   4.999  23.941  13.242
 2409DOPC   NC328165  17.139  12.994  15.072
 2409DOPC   PO428166  17.509  12.904  14.892
 2409DOPC   GL128167  17.519  12.944  14.462
 2409DOPC   GL228168  17.669  13.214  14.262
 2409DOPC   C1A28169  17.709  12.794  14.052
 2409DOPC   D2A28170  18.109  12.714  13.892
 2409DOPC   C3A28171  18.179  12.484  13.462
 2409DOPC   C4A28172  18.159  12.694  13.052
 2409DOPC   C1B28173  18.039  13.274  14.022
 2409DOPC   D2B28174  18.539  13.124  13.852
 2409DOPC   C3B28175  18.619  12.704  13.692
 2409DOPC   C4B28176  18.639  12.614  13.342
 2410DOPC   NC328177  19.989   1.804  15.362
 2410DOPC   PO428178  20.199   2.194  15.352
 2410DOPC   GL128179  20.559   2.144  15.102
 2410DOPC   GL228180  20.719   2.044  15.352
 2410DOPC   C1A28181  20.469   1.814  14.782
 2410DOPC   D2A28182  20.259   1.464  14.592
 2410DOPC   C3A28183  20.099   1.484  14.112
 2410DOPC   C4A28184  20.039   1.294  13.772
 2410DOPC   C1B28185  20.989   1.824  15.042
 2410DOPC   D2B28186  21.269   1.584  14.642
 2410DOPC   C3B28187  21.319   1.694  14.302
 2410DOPC   C4B28188  21.119   1.944  14.022
 2411DOPC   NC328189   2.079  21.431  15.562
 2411DOPC   PO428190   2.179  21.821  15.712
 2411DOPC   GL128191   2.089  22.021  15.362
 2411DOPC   GL228192   2.299  22.271  15.362
 2411DOPC   C1A28193   1.959  22.371  14.982
 2411DOPC   D2A28194   1.609  22.591  14.872
 2411DOPC   C3A28195   1.319  22.501  14.612
 2411DOPC   C4A28196   1.329  22.341  14.192
 2411DOPC   C1B28197   2.419  22.181  14.882
 2411DOPC   D2B28198   2.419  22.071  14.422
 2411DOPC   C3B28199   2.139  21.831  14.172
 2411DOPC   C4B28200   1.699  21.971  14.202
 2412DOPC   NC328201  12.109   2.794  14.582
 2412DOPC   PO428202  11.709   2.894  14.402
 2412DOPC   GL128203  11.779   3.194  14.092
 2412DOPC   GL228204  12.009   3.494  14.052
 2412DOPC   C1A28205  11.599   3.284  13.642
 2412DOPC   D2A28206  11.289   3.554  13.512
 2412DOPC   C3A28207  11.349   3.974  13.712
 2412DOPC   C4A28208  11.279   4.374  13.642
 2412DOPC   C1B28209  11.919   3.774  13.732
 2412DOPC   D2B28210  11.899   3.554  13.292
 2412DOPC   C3B28211  11.579   3.364  13.132
 2412DOPC   C4B28212  11.379   3.024  13.252
 2413DOPC   NC328213  15.569   2.734  15.522
 2413DOPC   PO428214  15.699   2.964  15.162
 2413DOPC   GL128215  15.849   3.024  14.742
 2413DOPC   GL228216  16.119   3.264  14.612
 2413DOPC   C1A28217  15.769   3.064  14.272
 2413DOPC   D2A28218  15.629   2.964  13.952
 2413DOPC   C3A28219  15.629   3.224  13.582
 2413DOPC   C4A28220  15.359   3.274  13.232
 2413DOPC   C1B28221  16.139   3.364  14.312
 2413DOPC   D2B28222  16.269   3.144  13.972
 2413DOPC   C3B28223  16.129   3.204  13.512
 2413DOPC   C4B28224  16.069   3.524  13.232
 2414DOPC   NC328225  20.799   6.014  15.432
 2414DOPC   PO428226  20.659   5.684  15.212
 2414DOPC   GL128227  20.589   5.674  14.822
 2414DOPC   GL228228  20.399   5.504  14.642
 2414DOPC   C1A28229  20.929   5.744  14.502
 2414DOPC   D2A28230  20.999   5.624  14.062
 2414DOPC   C3A28231  21.159   5.294  13.692
 2414DOPC   C4A28232  21.209   4.824  13.722
 2414DOPC   C1B28233  20.509   5.494  14.232
 2414DOPC   D2B28234  20.719   5.194  13.892
 2414DOPC   C3B28235  20.679   4.734  13.712
 2414DOPC   C4B28236  20.629   4.384  13.322
 2415DOPC   NC328237  20.789  24.571  15.712
 2415DOPC   PO428238  20.849  24.181  15.982
 2415DOPC   GL128239  20.769  24.091  15.522
 2415DOPC   GL228240  20.689  23.741  15.512
 2415DOPC   C1A28241  20.609  24.141  15.182
 2415DOPC   D2A28242  20.489  24.401  14.812
 2415DOPC   C3A28243  20.489  24.881  14.802
 2415DOPC   C4A28244  20.369  25.231  15.132
 2415DOPC   C1B28245  20.969  23.761  15.192
 2415DOPC   D2B28246  20.699  23.901  14.752
 2415DOPC   C3B28247  20.289  23.951  14.752
 2415DOPC   C4B28248  19.979  23.991  14.522
 2416DOPC   NC328249  10.019  21.581  15.282
 2416DOPC   PO428250  10.399  21.681  15.182
 2416DOPC   GL128251  10.209  21.611  14.812
 2416DOPC   GL228252  10.219  21.931  14.692
 2416DOPC   C1A28253  10.279  21.481  14.552
 2416DOPC   D2A28254  10.269  21.491  14.132
 2416DOPC   C3A28255   9.999  21.511  13.862
 2416DOPC   C4A28256   9.919  21.611  13.432
 2416DOPC   C1B28257  10.619  21.851  14.542
 2416DOPC   D2B28258  10.689  22.051  14.142
 2416DOPC   C3B28259  10.889  21.731  14.072
 2416DOPC   C4B28260  11.169  21.471  13.892
 2417DOPC   NC328261  17.559  12.994  10.482
 2417DOPC   PO428262  17.569  13.134  10.842
 2417DOPC   GL128263  17.349  13.324  11.242
 2417DOPC   GL228264  17.389  13.704  11.342
 2417DOPC   C1A28265  17.099  13.284  11.522
 2417DOPC   D2A28266  17.039  13.094  11.962
 2417DOPC   C3A28267  16.649  13.224  12.172
 2417DOPC   C4A28268  16.269  13.244  12.372
 2417DOPC   C1B28269  17.219  13.744  11.772
 2417DOPC   D2B28270  16.969  13.604  12.132
 2417DOPC   C3B28271  17.059  13.674  12.622
 2417DOPC   C4B28272  17.429  13.524  12.862
 2418DOPC   NC328273  18.859   1.494  11.832
 2418DOPC   PO428274  19.119   1.284  11.732
 2418DOPC   GL128275  19.029   1.204  12.212
 2418DOPC   GL228276  18.929   1.404  12.412
 2418DOPC   C1A28277  18.949   0.874  12.572
 2418DOPC   D2A28278  18.979   0.934  13.002
 2418DOPC   C3A28279  18.829   1.024  13.402
 2418DOPC   C4A28280  18.719   1.144  13.872
 2418DOPC   C1B28281  18.949   1.434  12.902
 2418DOPC   D2B28282  18.879   1.764  13.222
 2418DOPC   C3B28283  18.739   2.234  13.182
 2418DOPC   C4B28284  18.339   2.304  13.032
 2419DOPC   NC328285  16.339   7.694  15.122
 2419DOPC   PO428286  16.679   7.784  14.872
 2419DOPC   GL128287  16.689   7.834  14.422
 2419DOPC   GL228288  16.629   7.634  14.302
 2419DOPC   C1A28289  16.429   8.044  14.072
 2419DOPC   D2A28290  16.109   7.994  13.672
 2419DOPC   C3A28291  16.269   8.284  13.372
 2419DOPC   C4A28292  16.399   8.364  12.972
 2419DOPC   C1B28293  16.689   7.494  13.982
 2419DOPC   D2B28294  16.699   7.804  13.582
 2419DOPC   C3B28295  16.429   7.784  13.302
 2419DOPC   C4B28296  16.429   7.654  12.812
 2420DOPC   NC328297  24.259   2.934  11.752
 2420DOPC   PO428298  23.839   3.064  11.992
 2420DOPC   GL128299  24.279   3.154  12.202
 2420DOPC   GL228300  24.559   2.974  12.152
 2420DOPC   C1A28301  24.259   3.194  12.602
 2420DOPC   D2A28302  24.179   2.974  13.082
 2420DOPC   C3A28303  24.169   3.374  13.352
 2420DOPC   C4A28304  24.109   3.454  13.802
 2420DOPC   C1B28305  24.719   3.194  12.462
 2420DOPC   D2B28306  24.989   3.084  12.792
 2420DOPC   C3B28307  25.119   3.044  13.192
 2420DOPC   C4B28308  25.139   2.624  13.472
 2421DOPC   NC328309   8.789  11.204  11.372
 2421DOPC   PO428310   9.039  11.574  11.102
 2421DOPC   GL128311   9.209  11.434  11.482
 2421DOPC   GL228312   9.239  11.134  11.642
 2421DOPC   C1A28313   9.409  11.614  11.732
 2421DOPC   D2A28314   9.539  11.504  12.202
 2421DOPC   C3A28315   9.289  11.194  12.342
 2421DOPC   C4A28316   9.269  10.754  12.372
 2421DOPC   C1B28317   8.909  11.184  11.982
 2421DOPC   D2B28318   8.869  11.534  12.252
 2421DOPC   C3B28319   9.119  11.594  12.582
 2421DOPC   C4B28320   8.979  11.994  12.822
 2422DOPC   NC328321   6.369   9.814  14.832
 2422DOPC   PO428322   6.769   9.654  14.772
 2422DOPC   GL128323   6.469   9.634  14.382
 2422DOPC   GL228324   6.689   9.734  14.212
 2422DOPC   C1A28325   6.149   9.624  14.182
 2422DOPC   D2A28326   5.859   9.824  13.812
 2422DOPC   C3A28327   5.689   9.754  13.402
 2422DOPC   C4A28328   5.589   9.444  13.252
 2422DOPC   C1B28329   6.479   9.904  13.842
 2422DOPC   D2B28330   6.159  10.194  13.662
 2422DOPC   C3B28331   6.229  10.634  13.532
 2422DOPC   C4B28332   6.379  10.934  13.182
 2423DOPC   NC328333   5.339   1.454  15.132
 2423DOPC   PO428334   4.849   1.464  15.122
 2423DOPC   GL128335   5.029   1.614  14.752
 2423DOPC   GL228336   5.019   2.024  14.652
 2423DOPC   C1A28337   5.199   1.504  14.302
 2423DOPC   D2A28338   5.139   1.804  13.962
 2423DOPC   C3A28339   4.819   1.784  13.742
 2423DOPC   C4A28340   4.529   1.984  13.492
 2423DOPC   C1B28341   5.399   2.184  14.572
 2423DOPC   D2B28342   5.579   2.414  14.432
 2423DOPC   C3B28343   5.809   2.424  14.112
 2423DOPC   C4B28344   6.169   2.604  14.202
 2424DOPC   NC328345  12.239  17.824  14.402
 2424DOPC   PO428346  12.509  17.444  14.442
 2424DOPC   GL128347  12.269  17.384  14.062
 2424DOPC   GL228348  12.159  17.734  13.892
 2424DOPC   C1A28349  12.059  17.004  13.862
 2424DOPC   D2A28350  11.909  16.594  13.752
 2424DOPC   C3A28351  12.159  16.284  13.552
 2424DOPC   C4A28352  12.529  16.264  13.462
 2424DOPC   C1B28353  12.129  17.804  13.462
 2424DOPC   D2B28354  12.329  17.994  13.062
 2424DOPC   C3B28355  12.329  18.384  12.722
 2424DOPC   C4B28356  12.199  18.664  12.422
 2425DOPC   NC328357  19.409  14.894  16.162
 2425DOPC   PO428358  19.579  15.084  15.722
 2425DOPC   GL128359  19.559  14.814  15.282
 2425DOPC   GL228360  19.279  14.934  15.342
 2425DOPC   C1A28361  19.679  15.044  14.952
 2425DOPC   D2A28362  19.479  15.094  14.532
 2425DOPC   C3A28363  19.029  15.254  14.492
 2425DOPC   C4A28364  18.719  15.124  14.612
 2425DOPC   C1B28365  19.209  14.784  14.862
 2425DOPC   D2B28366  19.099  14.784  14.382
 2425DOPC   C3B28367  19.439  14.814  14.112
 2425DOPC   C4B28368  19.699  15.184  13.952
 2426DOPC   NC328369  23.589  25.281  11.862
 2426DOPC   PO428370  23.449  24.911  11.912
 2426DOPC   GL128371  23.399  25.001  12.332
 2426DOPC   GL228372  23.439  25.291  12.412
 2426DOPC   C1A28373  23.569  24.931  12.792
 2426DOPC   D2A28374  23.669  24.721  13.302
 2426DOPC   C3A28375  23.419  24.951  13.612
 2426DOPC   C4A28376  23.519  25.351  13.772
 2426DOPC   C1B28377  23.489  25.461  12.892
 2426DOPC   D2B28378  23.729  25.331  13.302
 2426DOPC   C3B28379  24.129  25.541  13.372
 2426DOPC   C4B28380  24.429  25.421  13.102
 2427DOPC   NC328381   4.629  19.514  11.672
 2427DOPC   PO428382   4.929  19.134  11.672
 2427DOPC   GL128383   4.859  19.064  12.152
 2427DOPC   GL228384   4.619  18.814  12.332
 2427DOPC   C1A28385   5.119  18.694  12.372
 2427DOPC   D2A28386   5.419  18.534  12.652
 2427DOPC   C3A28387   5.449  18.164  12.932
 2427DOPC   C4A28388   5.359  17.804  12.952
 2427DOPC   C1B28389   4.589  18.534  12.832
 2427DOPC   D2B28390   4.209  18.514  13.132
 2427DOPC   C3B28391   4.299  18.714  13.542
 2427DOPC   C4B28392   4.499  18.994  13.712
 2428DOPC   NC328393   9.839  15.664  14.682
 2428DOPC   PO428394   9.509  15.894  14.942
 2428DOPC   GL128395   9.349  15.844  14.492
 2428DOPC   GL228396   9.389  15.574  14.412
 2428DOPC   C1A28397   9.529  15.934  14.112
 2428DOPC   D2A28398   9.519  16.214  13.782
 2428DOPC   C3A28399   9.169  16.314  13.422
 2428DOPC   C4A28400   9.149  16.504  12.982
 2428DOPC   C1B28401   9.129  15.634  14.032
 2428DOPC   D2B28402   8.959  15.894  13.682
 2428DOPC   C3B28403   9.139  15.824  13.372
 2428DOPC   C4B28404   9.029  16.034  12.992
 2429DOPC   NC328405   1.999   2.394  15.122
 2429DOPC   PO428406   1.569   2.074  15.092
 2429DOPC   GL128407   1.239   2.254  14.922
 2429DOPC   GL228408   1.139   1.904  14.862
 2429DOPC   C1A28409   0.929   2.374  14.622
 2429DOPC   D2A28410   0.729   2.164  14.212
 2429DOPC   C3A28411   1.039   2.124  13.952
 2429DOPC   C4A28412   1.419   2.234  13.762
 2429DOPC   C1B28413   0.859   1.744  14.562
 2429DOPC   D2B28414   0.629   1.574  14.262
 2429DOPC   C3B28415   0.739   1.774  13.802
 2429DOPC   C4B28416   0.949   1.534  13.572
 2430DOPC   NC328417  24.919   4.484  15.392
 2430DOPC   PO428418  24.469   4.394  15.272
 2430DOPC   GL128419  24.279   4.384  14.802
 2430DOPC   GL228420  24.109   4.094  14.892
 2430DOPC   C1A28421  24.519   4.344  14.422
 2430DOPC   D2A28422  24.829   4.324  14.122
 2430DOPC   C3A28423  24.829   3.954  13.822
 2430DOPC   C4A28424  24.619   3.644  13.622
 2430DOPC   C1B28425  24.049   3.694  14.722
 2430DOPC   D2B28426  24.039   3.224  14.872
 2430DOPC   C3B28427  23.839   2.924  14.552
 2430DOPC   C4B28428  23.399   2.764  14.612
 2431DOPC   NC328429   5.109  17.424  11.892
 2431DOPC   PO428430   5.319  17.074  11.742
 2431DOPC   GL128431   5.539  16.814  12.012
 2431DOPC   GL228432   5.819  16.914  11.972
 2431DOPC   C1A28433   5.489  16.674  12.412
 2431DOPC   D2A28434   5.769  16.864  12.692
 2431DOPC   C3A28435   6.119  16.654  12.912
 2431DOPC   C4A28436   6.349  16.604  13.252
 2431DOPC   C1B28437   6.079  16.914  12.292
 2431DOPC   D2B28438   6.339  16.764  12.522
 2431DOPC   C3B28439   6.169  17.124  12.872
 2431DOPC   C4B28440   5.949  16.964  13.332
 2432DOPC   NC328441  17.069  17.514  16.152
 2432DOPC   PO428442  16.789  17.744  15.792
 2432DOPC   GL128443  16.979  17.924  15.412
 2432DOPC   GL228444  17.359  17.774  15.272
 2432DOPC   C1A28445  16.879  17.934  15.042
 2432DOPC   D2A28446  16.589  18.184  14.862
 2432DOPC   C3A28447  16.309  18.114  14.612
 2432DOPC   C4A28448  15.979  17.894  14.312
 2432DOPC   C1B28449  17.779  17.784  15.042
 2432DOPC   D2B28450  17.949  17.934  14.662
 2432DOPC   C3B28451  17.749  18.324  14.572
 2432DOPC   C4B28452  17.399  18.414  14.312
 2433DOPC   NC328453  18.659  17.674  15.892
 2433DOPC   PO428454  18.709  17.354  15.572
 2433DOPC   GL128455  18.839  17.084  15.212
 2433DOPC   GL228456  18.709  16.834  15.112
 2433DOPC   C1A28457  19.109  17.164  14.902
 2433DOPC   D2A28458  19.319  17.514  14.722
 2433DOPC   C3A28459  19.739  17.554  14.772
 2433DOPC   C4A28460  20.109  17.344  14.952
 2433DOPC   C1B28461  18.589  17.104  14.802
 2433DOPC   D2B28462  18.389  16.964  14.422
 2433DOPC   C3B28463  17.919  16.984  14.432
 2433DOPC   C4B28464  17.539  17.034  14.602
 2434DOPC   NC328465   2.609   9.814  11.942
 2434DOPC   PO428466   3.049   9.664  11.912
 2434DOPC   GL128467   3.439   9.624  12.172
 2434DOPC   GL228468   3.519   9.964  12.222
 2434DOPC   C1A28469   3.529   9.674  12.582
 2434DOPC   D2A28470   3.699   9.524  12.982
 2434DOPC   C3A28471   4.049   9.634  13.212
 2434DOPC   C4A28472   4.409   9.454  13.462
 2434DOPC   C1B28473   3.779  10.244  12.462
 2434DOPC   D2B28474   4.049  10.434  12.782
 2434DOPC   C3B28475   4.399  10.174  12.862
 2434DOPC   C4B28476   4.499   9.824  13.102
 2435DOPC   NC328477  21.769  16.864  12.152
 2435DOPC   PO428478  21.879  16.464  12.302
 2435DOPC   GL128479  21.839  16.424  12.682
 2435DOPC   GL228480  21.449  16.314  12.652
 2435DOPC   C1A28481  21.659  16.474  13.142
 2435DOPC   D2A28482  21.699  16.354  13.622
 2435DOPC   C3A28483  21.969  16.674  13.802
 2435DOPC   C4A28484  21.999  17.144  13.742
 2435DOPC   C1B28485  21.219  16.574  12.962
 2435DOPC   D2B28486  21.209  16.844  13.272
 2435DOPC   C3B28487  21.659  16.924  13.412
 2435DOPC   C4B28488  22.099  16.834  13.322
 2436DOPC   NC328489  18.419   5.464  15.182
 2436DOPC   PO428490  18.789   5.424  15.402
 2436DOPC   GL128491  18.959   5.234  14.922
 2436DOPC   GL228492  18.739   5.174  14.712
 2436DOPC   C1A28493  19.259   5.204  14.562
 2436DOPC   D2A28494  19.479   4.884  14.322
 2436DOPC   C3A28495  19.269   4.464  14.332
 2436DOPC   C4A28496  19.529   4.084  14.352
 2436DOPC   C1B28497  18.499   4.754  14.722
 2436DOPC   D2B28498  18.289   4.534  14.482
 2436DOPC   C3B28499  17.879   4.374  14.442
 2436DOPC   C4B28500  17.479   4.414  14.312
 2437DOPC   NC328501  14.709  21.114  11.822
 2437DOPC   PO428502  14.419  21.461  11.802
 2437DOPC   GL128503  14.289  21.274  12.192
 2437DOPC   GL228504  14.309  20.964  12.082
 2437DOPC   C1A28505  14.389  21.094  12.532
 2437DOPC   D2A28506  14.679  20.954  12.892
 2437DOPC   C3A28507  14.529  20.714  13.242
 2437DOPC   C4A28508  14.109  20.594  13.372
 2437DOPC   C1B28509  14.189  20.704  12.382
 2437DOPC   D2B28510  13.979  20.364  12.342
 2437DOPC   C3B28511  13.949  19.984  12.662
 2437DOPC   C4B28512  14.109  19.664  12.892
 2438DOPC   NC328513   9.459   7.224  14.812
 2438DOPC   PO428514   9.509   7.424  14.512
 2438DOPC   GL128515   9.619   7.144  14.232
 2438DOPC   GL228516   9.819   6.794  14.292
 2438DOPC   C1A28517   9.709   7.304  13.772
 2438DOPC   D2A28518   9.979   7.414  13.482
 2438DOPC   C3A28519  10.309   7.424  13.712
 2438DOPC   C4A28520  10.589   7.044  13.852
 2438DOPC   C1B28521   9.729   6.624  13.922
 2438DOPC   D2B28522   9.419   6.844  13.652
 2438DOPC   C3B28523   9.039   6.814  13.492
 2438DOPC   C4B28524   8.659   6.644  13.432
 2439DOPC   NC328525   6.709  21.214  15.502
 2439DOPC   PO428526   6.559  21.541  15.322
 2439DOPC   GL128527   6.229  21.691  15.132
 2439DOPC   GL228528   5.969  21.501  15.012
 2439DOPC   C1A28529   6.349  21.911  14.722
 2439DOPC   D2A28530   6.609  21.641  14.442
 2439DOPC   C3A28531   6.619  21.411  14.102
 2439DOPC   C4A28532   6.739  21.114  13.782
 2439DOPC   C1B28533   6.099  21.461  14.652
 2439DOPC   D2B28534   6.139  21.661  14.202
 2439DOPC   C3B28535   5.769  21.891  13.992
 2439DOPC   C4B28536   5.279  21.601  13.992
 2440DOPC   NC328537   7.259  24.631  15.442
 2440DOPC   PO428538   7.319  24.451  15.012
 2440DOPC   GL128539   7.319  24.151  14.662
 2440DOPC   GL228540   7.089  24.171  14.532
 2440DOPC   C1A28541   7.249  24.091  14.082
 2440DOPC   D2A28542   7.319  24.081  13.632
 2440DOPC   C3A28543   7.749  23.911  13.692
 2440DOPC   C4A28544   7.869  23.491  13.702
 2440DOPC   C1B28545   6.829  24.231  14.192
 2440DOPC   D2B28546   6.549  24.281  13.792
 2440DOPC   C3B28547   6.629  24.061  13.432
 2440DOPC   C4B28548   6.639  23.741  13.062
 2441DOPC   NC328549  14.059   7.444  11.002
 2441DOPC   PO428550  13.669   7.754  10.872
 2441DOPC   GL128551  13.379   7.884  11.232
 2441DOPC   GL228552  13.199   7.634  11.392
 2441DOPC   C1A28553  12.989   8.084  11.502
 2441DOPC   D2A28554  12.539   8.014  11.502
 2441DOPC   C3A28555  12.199   7.984  11.842
 2441DOPC   C4A28556  11.949   8.034  12.242
 2441DOPC   C1B28557  13.269   7.674  11.902
 2441DOPC   D2B28558  13.039   7.424  12.292
 2441DOPC   C3B28559  12.669   7.364  12.282
 2441DOPC   C4B28560  12.289   7.184  12.282
 2442DOPC   NC328561  13.489   9.294  14.562
 2442DOPC   PO428562  13.679   9.344  14.152
 2442DOPC   GL128563  13.939   9.324  13.792
 2442DOPC   GL228564  14.089   9.624  13.762
 2442DOPC   C1A28565  14.219   8.954  13.652
 2442DOPC   D2A28566  14.439   8.664  13.322
 2442DOPC   C3A28567  14.679   8.984  13.112
 2442DOPC   C4A28568  14.489   9.324  13.262
 2442DOPC   C1B28569  14.049   9.514  13.312
 2442DOPC   D2B28570  14.129   9.054  13.112
 2442DOPC   C3B28571  13.899   8.664  13.282
 2442DOPC   C4B28572  13.939   8.454  13.662
 2443DOPC   NC328573  -0.119  16.714  15.452
 2443DOPC   PO428574   0.299  16.504  15.502
 2443DOPC   GL128575   0.519  16.254  15.122
 2443DOPC   GL228576   0.579  16.014  15.152
 2443DOPC   C1A28577   0.189  16.214  14.742
 2443DOPC   D2A28578   0.219  15.934  14.352
 2443DOPC   C3A28579   0.449  16.074  13.972
 2443DOPC   C4A28580   0.469  16.284  13.552
 2443DOPC   C1B28581   0.549  15.854  14.772
 2443DOPC   D2B28582   0.789  15.924  14.402
 2443DOPC   C3B28583   0.929  15.584  14.122
 2443DOPC   C4B28584   1.169  15.184  14.112
 2444DOPC   NC328585   2.709  21.004  15.242
 2444DOPC   PO428586   2.599  21.344  15.452
 2444DOPC   GL128587   2.859  21.391  15.002
 2444DOPC   GL228588   2.949  21.681  15.002
 2444DOPC   C1A28589   2.829  21.094  14.632
 2444DOPC   D2A28590   3.199  20.804  14.412
 2444DOPC   C3A28591   3.409  21.214  14.252
 2444DOPC   C4A28592   3.599  21.224  13.882
 2444DOPC   C1B28593   2.829  21.921  14.612
 2444DOPC   D2B28594   2.969  21.991  14.232
 2444DOPC   C3B28595   2.789  22.291  13.992
 2444DOPC   C4B28596   2.549  22.401  13.602
 2445DOPC   NC328597   1.729  14.554  15.372
 2445DOPC   PO428598   1.679  14.054  15.332
 2445DOPC   GL128599   1.489  14.114  14.912
 2445DOPC   GL228600   1.499  13.914  14.732
 2445DOPC   C1A28601   1.299  14.514  14.682
 2445DOPC   D2A28602   1.129  14.964  14.552
 2445DOPC   C3A28603   1.199  15.424  14.632
 2445DOPC   C4A28604   1.209  15.854  14.672
 2445DOPC   C1B28605   1.379  14.204  14.342
 2445DOPC   D2B28606   1.319  14.684  14.182
 2445DOPC   C3B28607   1.049  14.904  13.762
 2445DOPC   C4B28608   0.679  15.264  13.732
 2446DOPC   NC328609   4.689   6.784  10.932
 2446DOPC   PO428610   4.669   6.964  11.332
 2446DOPC   GL128611   4.449   6.774  11.712
 2446DOPC   GL228612   4.789   6.944  11.852
 2446DOPC   C1A28613   4.439   6.804  12.192
 2446DOPC   D2A28614   4.199   6.764  12.662
 2446DOPC   C3A28615   4.499   6.794  12.972
 2446DOPC   C4A28616   4.829   6.854  13.272
 2446DOPC   C1B28617   5.049   6.864  12.182
 2446DOPC   D2B28618   5.269   6.934  12.522
 2446DOPC   C3B28619   5.579   7.314  12.632
 2446DOPC   C4B28620   5.619   7.744  12.742
 2447DOPC   NC328621  19.059  14.474  11.102
 2447DOPC   PO428622  19.099  14.724  11.492
 2447DOPC   GL128623  19.339  14.564  11.852
 2447DOPC   GL228624  19.159  14.354  11.952
 2447DOPC   C1A28625  19.399  14.734  12.322
 2447DOPC   D2A28626  19.229  15.164  12.562
 2447DOPC   C3A28627  18.919  15.014  12.782
 2447DOPC   C4A28628  18.599  15.094  12.922
 2447DOPC   C1B28629  18.789  14.234  12.172
 2447DOPC   D2B28630  18.679  13.914  12.302
 2447DOPC   C3B28631  18.809  14.004  12.652
 2447DOPC   C4B28632  19.089  14.104  12.962
 2448DOPC   NC328633  13.009  10.434  14.352
 2448DOPC   PO428634  12.949   9.994  14.232
 2448DOPC   GL128635  13.009  10.164  13.852
 2448DOPC   GL228636  13.329  10.004  13.832
 2448DOPC   C1A28637  12.779  10.134  13.442
 2448DOPC   D2A28638  12.669  10.534  13.262
 2448DOPC   C3A28639  12.799  10.884  13.072
 2448DOPC   C4A28640  12.739  11.354  12.992
 2448DOPC   C1B28641  13.279  10.004  13.452
 2448DOPC   D2B28642  13.369  10.014  12.952
 2448DOPC   C3B28643  13.419   9.794  12.682
 2448DOPC   C4B28644  13.459   9.334  12.482
 2449DOPC   NC328645   3.779  16.064  11.632
 2449DOPC   PO428646   4.069  16.234  11.782
 2449DOPC   GL128647   4.519  16.054  12.002
 2449DOPC   GL228648   4.639  15.914  11.792
 2449DOPC   C1A28649   4.619  16.004  12.382
 2449DOPC   D2A28650   4.799  15.944  12.822
 2449DOPC   C3A28651   4.729  15.414  12.922
 2449DOPC   C4A28652   4.849  14.874  13.072
 2449DOPC   C1B28653   4.739  15.584  12.062
 2449DOPC   D2B28654   4.879  15.484  12.432
 2449DOPC   C3B28655   4.959  15.114  12.602
 2449DOPC   C4B28656   5.119  14.684  12.722
 2450DOPC   NC328657   4.829   1.064  11.362
 2450DOPC   PO428658   5.219   0.904  11.612
 2450DOPC   GL128659   5.069   0.794  11.992
 2450DOPC   GL228660   4.719   0.594  11.942
 2450DOPC   C1A28661   5.009   0.574  12.342
 2450DOPC   D2A28662   5.389   0.354  12.562
 2450DOPC   C3A28663   5.479   0.484  12.922
 2450DOPC   C4A28664   5.259   0.644  13.282
 2450DOPC   C1B28665   4.549   0.534  12.412
 2450DOPC   D2B28666   4.469   0.134  12.652
 2450DOPC   C3B28667   4.769  -0.066  12.902
 2450DOPC   C4B28668   5.109  -0.246  13.242
 2451DOPC   NC328669  14.609   2.654  11.212
 2451DOPC   PO428670  15.059   2.724  11.372
 2451DOPC   GL128671  15.329   2.774  11.682
 2451DOPC   GL228672  15.269   3.184  11.822
 2451DOPC   C1A28673  15.379   2.944  12.282
 2451DOPC   D2A28674  15.439   3.094  12.742
 2451DOPC   C3A28675  15.459   3.504  12.792
 2451DOPC   C4A28676  15.669   3.834  12.912
 2451DOPC   C1B28677  14.829   3.404  11.812
 2451DOPC   D2B28678  14.719   3.754  12.022
 2451DOPC   C3B28679  14.359   3.714  12.232
 2451DOPC   C4B28680  14.129   3.984  12.462
 2452DOPC   NC328681  16.689  19.574  11.092
 2452DOPC   PO428682  16.349  19.574  11.552
 2452DOPC   GL128683  16.419  19.544  12.002
 2452DOPC   GL228684  16.089  19.334  12.082
 2452DOPC   C1A28685  16.409  19.504  12.412
 2452DOPC   D2A28686  16.369  19.474  12.832
 2452DOPC   C3A28687  16.209  19.754  13.062
 2452DOPC   C4A28688  16.019  19.954  13.412
 2452DOPC   C1B28689  15.939  19.584  12.252
 2452DOPC   D2B28690  15.739  19.954  12.192
 2452DOPC   C3B28691  15.809  20.254  12.512
 2452DOPC   C4B28692  16.099  20.464  12.582
 2453DOPC   NC328693   7.309  17.674  14.672
 2453DOPC   PO428694   6.919  17.784  14.772
 2453DOPC   GL128695   6.659  17.694  14.412
 2453DOPC   GL228696   6.959  17.554  14.282
 2453DOPC   C1A28697   6.419  17.944  14.092
 2453DOPC   D2A28698   6.349  17.714  13.782
 2453DOPC   C3A28699   6.479  17.814  13.512
 2453DOPC   C4A28700   6.269  17.554  13.152
 2453DOPC   C1B28701   6.789  17.444  13.892
 2453DOPC   D2B28702   6.829  17.364  13.452
 2453DOPC   C3B28703   7.099  17.394  13.162
 2453DOPC   C4B28704   7.169  17.704  12.942
 2454DOPC   NC328705  24.469   5.404  11.612
 2454DOPC   PO428706  24.869   5.234  11.562
 2454DOPC   GL128707  24.719   5.154  11.972
 2454DOPC   GL228708  25.109   5.054  12.082
 2454DOPC   C1A28709  24.819   5.304  12.442
 2454DOPC   D2A28710  24.949   5.204  12.892
 2454DOPC   C3A28711  25.359   5.374  13.112
 2454DOPC   C4A28712  25.676   5.264  13.412
 2454DOPC   C1B28713  25.569   5.124  12.162
 2454DOPC   D2B28714  25.846   5.234  12.432
 2454DOPC   C3B28715  25.726   5.124  12.842
 2454DOPC   C4B28716  25.359   4.884  13.012
 2455DOPC   NC328717   1.649   6.334  11.372
 2455DOPC   PO428718   1.809   6.664  11.722
 2455DOPC   GL128719   1.679   6.734  12.122
 2455DOPC   GL228720   1.859   6.504  12.352
 2455DOPC   C1A28721   1.319   7.054  12.192
 2455DOPC   D2A28722   0.989   7.164  12.552
 2455DOPC   C3A28723   0.819   7.534  12.712
 2455DOPC   C4A28724   0.409   7.614  12.882
 2455DOPC   C1B28725   1.709   6.344  12.662
 2455DOPC   D2B28726   1.739   6.074  12.992
 2455DOPC   C3B28727   2.079   5.764  13.102
 2455DOPC   C4B28728   2.389   5.384  13.192
 2456DOPC   NC328729  15.689  11.214  10.712
 2456DOPC   PO428730  15.299  11.174  10.482
 2456DOPC   GL128731  15.249  11.194  10.902
 2456DOPC   GL228732  15.299  10.894  11.032
 2456DOPC   C1A28733  15.039  11.414  11.162
 2456DOPC   D2A28734  14.789  11.564  11.562
 2456DOPC   C3A28735  14.459  11.644  11.822
 2456DOPC   C4A28736  14.579  11.704  12.302
 2456DOPC   C1B28737  15.359  10.764  11.492
 2456DOPC   D2B28738  15.369  10.804  11.932
 2456DOPC   C3B28739  15.499  10.704  12.372
 2456DOPC   C4B28740  15.839  10.554  12.722
 2457DOPC   NC328741  19.879   1.084  15.852
 2457DOPC   PO428742  20.169   1.334  15.682
 2457DOPC   GL128743  20.059   1.214  15.272
 2457DOPC   GL228744  19.889   1.464  14.972
 2457DOPC   C1A28745  20.059   1.014  14.712
 2457DOPC   D2A28746  20.049   1.004  14.262
 2457DOPC   C3A28747  19.669   1.254  14.132
 2457DOPC   C4A28748  19.259   1.214  13.902
 2457DOPC   C1B28749  19.719   1.424  14.572
 2457DOPC   D2B28750  19.259   1.454  14.362
 2457DOPC   C3B28751  19.109   1.684  14.132
 2457DOPC   C4B28752  18.949   1.624  13.702
 2458DOPC   NC328753  11.539  15.754  14.882
 2458DOPC   PO428754  11.639  15.504  14.492
 2458DOPC   GL128755  11.489  15.644  14.122
 2458DOPC   GL228756  11.659  15.884  14.142
 2458DOPC   C1A28757  11.349  15.714  13.762
 2458DOPC   D2A28758  11.339  15.834  13.472
 2458DOPC   C3A28759  10.989  15.744  13.342
 2458DOPC   C4A28760  10.599  16.014  13.252
 2458DOPC   C1B28761  11.719  16.174  13.852
 2458DOPC   D2B28762  11.629  16.294  13.442
 2458DOPC   C3B28763  11.659  16.034  13.132
 2458DOPC   C4B28764  11.929  15.774  12.822
 2459DOPC   NC328765   0.789  18.364  12.232
 2459DOPC   PO428766   0.359  18.374  12.322
 2459DOPC   GL128767   0.469  18.314  12.692
 2459DOPC   GL228768   0.669  18.004  12.572
 2459DOPC   C1A28769   0.499  18.144  13.112
 2459DOPC   D2A28770   0.829  17.984  13.362
 2459DOPC   C3A28771   0.669  17.784  13.742
 2459DOPC   C4A28772   0.669  17.304  13.892
 2459DOPC   C1B28773   1.029  18.104  12.902
 2459DOPC   D2B28774   1.189  18.444  13.242
 2459DOPC   C3B28775   1.509  18.714  13.132
 2459DOPC   C4B28776   1.579  19.014  13.402
 2460DOPC   NC328777   4.499  24.371  11.102
 2460DOPC   PO428778   4.199  24.411  11.352
 2460DOPC   GL128779   4.159  24.381  11.732
 2460DOPC   GL228780   4.119  24.141  11.862
 2460DOPC   C1A28781   4.319  24.471  12.182
 2460DOPC   D2A28782   4.349  24.321  12.522
 2460DOPC   C3A28783   4.569  24.561  12.802
 2460DOPC   C4A28784   4.839  24.471  13.192
 2460DOPC   C1B28785   3.919  24.091  12.242
 2460DOPC   D2B28786   3.819  24.391  12.542
 2460DOPC   C3B28787   3.509  24.571  12.832
 2460DOPC   C4B28788   3.129  24.831  12.712
 2461DOPC   NC328789  13.379  14.184  14.272
 2461DOPC   PO428790  13.649  14.214  14.542
 2461DOPC   GL128791  13.849  14.184  14.092
 2461DOPC   GL228792  13.699  14.334  13.832
 2461DOPC   C1A28793  14.139  14.114  13.762
 2461DOPC   D2A28794  14.549  13.864  13.822
 2461DOPC   C3A28795  14.719  13.854  13.492
 2461DOPC   C4A28796  14.999  13.974  13.272
 2461DOPC   C1B28797  13.659  14.344  13.472
 2461DOPC   D2B28798  13.679  14.344  13.062
 2461DOPC   C3B28799  14.029  14.284  12.772
 2461DOPC   C4B28800  14.349  14.014  12.812
 2462DOPC   NC328801   3.989  17.434  16.092
 2462DOPC   PO428802   4.159  17.394  15.692
 2462DOPC   GL128803   4.039  16.934  15.372
 2462DOPC   GL228804   4.339  16.674  15.232
 2462DOPC   C1A28805   3.989  16.924  14.942
 2462DOPC   D2A28806   3.869  16.744  14.552
 2462DOPC   C3A28807   3.939  16.624  14.142
 2462DOPC   C4A28808   4.029  16.614  13.692
 2462DOPC   C1B28809   3.999  16.434  14.962
 2462DOPC   D2B28810   3.579  16.374  14.812
 2462DOPC   C3B28811   3.549  16.344  14.392
 2462DOPC   C4B28812   3.559  16.454  13.892
 2463DOPC   NC328813   1.169  18.674  16.152
 2463DOPC   PO428814   1.399  18.374  15.872
 2463DOPC   GL128815   1.229  18.604  15.522
 2463DOPC   GL228816   1.299  18.374  15.182
 2463DOPC   C1A28817   1.139  18.974  15.232
 2463DOPC   D2A28818   0.789  19.074  14.882
 2463DOPC   C3A28819   0.849  18.884  14.442
 2463DOPC   C4A28820   0.859  19.174  14.052
 2463DOPC   C1B28821   1.159  18.424  14.672
 2463DOPC   D2B28822   1.379  18.354  14.212
 2463DOPC   C3B28823   1.709  18.284  13.962
 2463DOPC   C4B28824   1.959  17.954  13.652
 2464DOPC   NC328825  24.579  15.984  16.002
 2464DOPC   PO428826  24.169  16.044  15.862
 2464DOPC   GL128827  24.089  16.014  15.372
 2464DOPC   GL228828  24.079  15.634  15.222
 2464DOPC   C1A28829  24.189  16.124  14.942
 2464DOPC   D2A28830  23.969  16.264  14.662
 2464DOPC   C3A28831  23.969  15.964  14.282
 2464DOPC   C4A28832  24.079  15.894  13.932
 2464DOPC   C1B28833  24.399  15.534  15.012
 2464DOPC   D2B28834  24.629  15.314  14.612
 2464DOPC   C3B28835  24.659  15.494  14.132
 2464DOPC   C4B28836  24.639  15.714  13.772
 2465DOPC   NC328837  19.369  12.904  12.072
 2465DOPC   PO428838  19.709  13.144  11.992
 2465DOPC   GL128839  20.089  13.074  12.272
 2465DOPC   GL228840  20.199  12.674  12.412
 2465DOPC   C1A28841  20.319  13.184  12.632
 2465DOPC   D2A28842  20.689  13.004  12.642
 2465DOPC   C3A28843  20.929  13.234  12.372
 2465DOPC   C4A28844  21.249  13.494  12.432
 2465DOPC   C1B28845  19.909  12.904  12.712
 2465DOPC   D2B28846  19.529  12.824  12.962
 2465DOPC   C3B28847  19.539  12.444  13.142
 2465DOPC   C4B28848  19.629  11.964  13.212
 2466DOPC   NC328849   9.639  11.524  10.282
 2466DOPC   PO428850   9.939  11.394  10.642
 2466DOPC   GL128851  10.079  11.344  11.122
 2466DOPC   GL228852  10.219  11.114  11.332
 2466DOPC   C1A28853   9.869  11.504  11.572
 2466DOPC   D2A28854   9.809  11.864  11.922
 2466DOPC   C3A28855   9.469  12.154  11.912
 2466DOPC   C4A28856   9.079  12.424  12.092
 2466DOPC   C1B28857  10.129  11.184  11.822
 2466DOPC   D2B28858  10.039  11.514  12.132
 2466DOPC   C3B28859  10.339  11.794  12.092
 2466DOPC   C4B28860  10.339  12.264  11.982
 2467DOPC   NC328861  25.349   4.984  15.262
 2467DOPC   PO428862  25.519   4.554  15.272
 2467DOPC   GL128863  25.469   4.654  14.832
 2467DOPC   GL228864  25.199   4.814  14.802
 2467DOPC   C1A28865  25.599   4.704  14.392
 2467DOPC   D2A28866  25.776   4.814  13.912
 2467DOPC   C3A28867  25.489   4.864  13.542
 2467DOPC   C4A28868  25.149   4.544  13.442
 2467DOPC   C1B28869  25.189   4.364  14.472
 2467DOPC   D2B28870  25.269   3.914  14.142
 2467DOPC   C3B28871  25.629   3.784  13.982
 2467DOPC   C4B28872  25.786   3.394  13.942
 2468DOPC   NC328873  13.809   5.214  14.392
 2468DOPC   PO428874  13.959   4.904  14.552
 2468DOPC   GL128875  14.249   4.774  14.182
 2468DOPC   GL228876  14.499   4.724  14.202
 2468DOPC   C1A28877  14.289   4.844  13.742
 2468DOPC   D2A28878  14.369   5.104  13.322
 2468DOPC   C3A28879  14.539   4.934  12.902
 2468DOPC   C4A28880  14.649   4.474  12.782
 2468DOPC   C1B28881  14.839   4.664  13.822
 2468DOPC   D2B28882  14.689   4.454  13.542
 2468DOPC   C3B28883  14.799   4.724  13.282
 2468DOPC   C4B28884  14.819   5.064  13.532
 2469DOPC   NC328885   6.379  14.864  15.062
 2469DOPC   PO428886   6.779  15.154  15.182
 2469DOPC   GL128887   6.639  15.324  14.762
 2469DOPC   GL228888   6.449  15.114  14.602
 2469DOPC   C1A28889   6.549  15.624  14.382
 2469DOPC   D2A28890   6.789  15.734  14.062
 2469DOPC   C3A28891   6.719  15.954  13.672
 2469DOPC   C4A28892   6.349  16.004  13.492
 2469DOPC   C1B28893   6.269  15.194  14.222
 2469DOPC   D2B28894   6.099  15.194  13.762
 2469DOPC   C3B28895   5.719  15.194  13.672
 2469DOPC   C4B28896   5.479  14.994  13.342
 2470DOPC   NC328897  18.279   8.414  10.832
 2470DOPC   PO428898  18.139   8.054  10.962
 2470DOPC   GL128899  17.909   8.094  11.352
 2470DOPC   GL228900  17.969   8.434  11.212
 2470DOPC   C1A28901  17.719   7.854  11.552
 2470DOPC   D2A28902  17.489   7.654  11.872
 2470DOPC   C3A28903  17.379   7.234  12.012
 2470DOPC   C4A28904  17.069   7.344  12.272
 2470DOPC   C1B28905  18.139   8.424  11.582
 2470DOPC   D2B28906  18.199   8.644  11.982
 2470DOPC   C3B28907  17.969   8.424  12.332
 2470DOPC   C4B28908  17.779   7.954  12.192
 2471DOPC   NC328909  16.649   6.174  15.292
 2471DOPC   PO428910  16.909   5.994  14.992
 2471DOPC   GL128911  17.049   5.934  14.392
 2471DOPC   GL228912  16.859   6.034  14.142
 2471DOPC   C1A28913  17.359   5.914  14.122
 2471DOPC   D2A28914  17.449   5.714  13.612
 2471DOPC   C3A28915  17.619   5.994  13.302
 2471DOPC   C4A28916  17.879   6.294  13.112
 2471DOPC   C1B28917  16.849   6.044  13.702
 2471DOPC   D2B28918  17.009   5.784  13.362
 2471DOPC   C3B28919  17.369   5.684  13.022
 2471DOPC   C4B28920  17.639   5.784  12.652
 2472DOPC   NC328921  11.369  10.754  14.042
 2472DOPC   PO428922  11.589  11.114  13.842
 2472DOPC   GL128923  11.369  10.864  13.482
 2472DOPC   GL228924  11.009  10.774  13.552
 2472DOPC   C1A28925  11.409  10.864  13.082
 2472DOPC   D2A28926  11.269  10.634  12.732
 2472DOPC   C3A28927  11.099  10.284  12.782
 2472DOPC   C4A28928  10.989   9.934  12.542
 2472DOPC   C1B28929  10.969  10.684  13.172
 2472DOPC   D2B28930  10.719  10.854  12.852
 2472DOPC   C3B28931  10.739  10.624  12.472
 2472DOPC   C4B28932  10.779  10.234  12.162
 2473DOPC   NC328933  16.389  15.184  15.012
 2473DOPC   PO428934  15.999  15.304  14.842
 2473DOPC   GL128935  16.239  15.314  14.502
 2473DOPC   GL228936  16.479  15.134  14.512
 2473DOPC   C1A28937  16.539  15.494  14.172
 2473DOPC   D2A28938  16.699  15.884  14.042
 2473DOPC   C3A28939  16.819  15.704  13.642
 2473DOPC   C4A28940  17.079  15.414  13.382
 2473DOPC   C1B28941  16.949  15.164  14.282
 2473DOPC   D2B28942  17.319  15.044  14.052
 2473DOPC   C3B28943  17.419  15.184  13.602
 2473DOPC   C4B28944  17.589  15.204  13.172
 2474DOPC   NC328945  -0.499   0.864  15.772
 2474DOPC   PO428946  -0.009   0.854  15.762
 2474DOPC   GL128947  -0.199   0.874  15.342
 2474DOPC   GL228948   0.089   0.734  15.132
 2474DOPC   C1A28949  -0.369   0.844  15.002
 2474DOPC   D2A28950  -0.259   0.574  14.672
 2474DOPC   C3A28951   0.129   0.474  14.532
 2474DOPC   C4A28952   0.409   0.044  14.632
 2474DOPC   C1B28953   0.349   0.354  15.122
 2474DOPC   D2B28954   0.459  -0.046  15.122
 2474DOPC   C3B28955   0.859  -0.126  15.002
 2474DOPC   C4B28956   1.259   0.144  14.892
 2475DOPC   NC328957  19.759   0.234  16.212
 2475DOPC   PO428958  19.889   0.074  15.712
 2475DOPC   GL128959  19.949   0.104  15.232
 2475DOPC   GL228960  19.909   0.414  15.342
 2475DOPC   C1A28961  20.259   0.204  14.902
 2475DOPC   D2A28962  20.209   0.244  14.502
 2475DOPC   C3A28963  20.109  -0.106  14.172
 2475DOPC   C4A28964  20.289  -0.616  14.362
 2475DOPC   C1B28965  20.209   0.654  15.162
 2475DOPC   D2B28966  20.419   1.004  15.002
 2475DOPC   C3B28967  20.489   0.894  14.542
 2475DOPC   C4B28968  20.569   0.704  14.192
 2476DOPC   NC328969  17.719  18.324  11.872
 2476DOPC   PO428970  18.089  18.264  11.842
 2476DOPC   GL128971  17.979  18.044  12.242
 2476DOPC   GL228972  18.009  17.594  12.302
 2476DOPC   C1A28973  17.839  17.934  12.652
 2476DOPC   D2A28974  17.699  17.724  12.982
 2476DOPC   C3A28975  18.029  17.564  13.252
 2476DOPC   C4A28976  18.089  17.114  13.172
 2476DOPC   C1B28977  17.729  17.384  12.552
 2476DOPC   D2B28978  17.639  17.194  12.982
 2476DOPC   C3B28979  17.309  16.914  13.162
 2476DOPC   C4B28980  16.939  16.854  13.452
 2477DOPC   NC328981  -0.119  23.891  15.812
 2477DOPC   PO428982   0.069  24.181  15.592
 2477DOPC   GL128983   0.319  24.121  15.162
 2477DOPC   GL228984   0.489  23.831  15.142
 2477DOPC   C1A28985   0.539  24.371  14.902
 2477DOPC   D2A28986   0.389  24.771  14.682
 2477DOPC   C3A28987   0.189  24.941  14.422
 2477DOPC   C4A28988   0.001  24.981  13.992
 2477DOPC   C1B28989   0.189  23.821  14.732
 2477DOPC   D2B28990   0.199  23.591  14.382
 2477DOPC   C3B28991  -0.189  23.341  14.262
 2477DOPC   C4B28992  -0.429  23.111  13.972
 2478DOPC   NC328993  13.159  18.184  14.542
 2478DOPC   PO428994  13.209  18.624  14.592
 2478DOPC   GL128995  13.349  18.954  14.282
 2478DOPC   GL228996  13.659  19.144  14.172
 2478DOPC   C1A28997  13.089  18.884  13.932
 2478DOPC   D2A28998  13.149  19.074  13.552
 2478DOPC   C3A28999  13.199  18.764  13.302
 2478DOPC   C4A29000  13.419  18.724  12.932
 2478DOPC   C1B29001  13.689  19.284  13.742
 2478DOPC   D2B29002  13.899  19.574  13.412
 2478DOPC   C3B29003  13.599  19.924  13.222
 2478DOPC   C4B29004  13.669  20.354  12.982
 2479DOPC   NC329005  18.689  12.394  10.902
 2479DOPC   PO429006  18.239  12.224  10.922
 2479DOPC   GL129007  18.119  12.254  11.322
 2479DOPC   GL229008  18.119  12.514  11.572
 2479DOPC   C1A29009  18.089  11.994  11.732
 2479DOPC   D2A29010  18.049  11.564  11.992
 2479DOPC   C3A29011  18.079  11.284  11.772
 2479DOPC   C4A29012  18.239  10.874  11.672
 2479DOPC   C1B29013  18.019  12.424  12.042
 2479DOPC   D2B29014  17.999  12.324  12.532
 2479DOPC   C3B29015  17.639  12.474  12.742
 2479DOPC   C4B29016  17.449  12.514  13.132
 2480DOPC   NC329017   6.249   6.764  14.802
 2480DOPC   PO429018   5.999   7.224  14.882
 2480DOPC   GL129019   6.009   7.174  14.472
 2480DOPC   GL229020   6.039   6.874  14.372
 2480DOPC   C1A29021   6.239   7.204  14.062
 2480DOPC   D2A29022   6.449   7.324  13.732
 2480DOPC   C3A29023   6.349   7.674  13.362
 2480DOPC   C4A29024   6.119   7.704  13.062
 2480DOPC   C1B29025   5.769   6.914  13.992
 2480DOPC   D2B29026   5.589   6.814  13.582
 2480DOPC   C3B29027   5.589   6.474  13.232
 2480DOPC   C4B29028   5.669   6.024  13.162
 2481DOPC   NC329029   9.999   5.644  15.122
 2481DOPC   PO429030  10.059   5.314  14.782
 2481DOPC   GL129031  10.019   5.244  14.362
 2481DOPC   GL229032   9.659   5.234  14.252
 2481DOPC   C1A29033  10.039   5.054  13.882
 2481DOPC   D2A29034   9.889   4.924  13.472
 2481DOPC   C3A29035  10.099   5.044  13.052
 2481DOPC   C4A29036  10.059   5.044  12.552
 2481DOPC   C1B29037   9.299   5.304  13.922
 2481DOPC   D2B29038   8.999   5.544  13.772
 2481DOPC   C3B29039   8.929   5.734  13.422
 2481DOPC   C4B29040   8.539   5.974  13.372
 2482DOPC   NC329041  20.649  21.381  16.332
 2482DOPC   PO429042  20.569  21.731  16.152
 2482DOPC   GL129043  20.809  21.671  15.852
 2482DOPC   GL229044  20.599  21.631  15.612
 2482DOPC   C1A29045  21.009  21.701  15.462
 2482DOPC   D2A29046  20.919  21.821  15.022
 2482DOPC   C3A29047  20.919  22.231  14.892
 2482DOPC   C4A29048  20.619  22.551  14.652
 2482DOPC   C1B29049  20.549  21.481  15.122
 2482DOPC   D2B29050  20.739  21.501  14.722
 2482DOPC   C3B29051  20.679  21.154  14.462
 2482DOPC   C4B29052  20.659  20.914  14.202
 2483DOPC   NC329053  14.249   8.574  14.742
 2483DOPC   PO429054  14.349   8.834  14.442
 2483DOPC   GL129055  14.479   9.014  14.082
 2483DOPC   GL229056  14.509   9.334  13.952
 2483DOPC   C1A29057  14.819   8.954  13.702
 2483DOPC   D2A29058  14.959   8.654  13.372
 2483DOPC   C3A29059  14.859   8.524  12.972
 2483DOPC   C4A29060  14.589   8.234  12.662
 2483DOPC   C1B29061  14.889   9.434  13.572
 2483DOPC   D2B29062  14.949   9.574  13.282
 2483DOPC   C3B29063  15.109   9.264  12.932
 2483DOPC   C4B29064  15.169   8.914  12.862
 2484DOPC   NC329065  17.719  23.931  11.972
 2484DOPC   PO429066  17.309  24.081  11.932
 2484DOPC   GL129067  17.179  23.941  12.362
 2484DOPC   GL229068  17.519  23.781  12.412
 2484DOPC   C1A29069  17.049  23.721  12.612
 2484DOPC   D2A29070  16.819  23.631  12.922
 2484DOPC   C3A29071  16.889  23.631  13.422
 2484DOPC   C4A29072  16.789  23.801  13.742
 2484DOPC   C1B29073  17.449  23.561  12.772
 2484DOPC   D2B29074  17.239  23.431  13.092
 2484DOPC   C3B29075  17.349  23.521  13.502
 2484DOPC   C4B29076  17.219  23.651  13.942
 2485DOPC   NC329077   4.239  22.651  15.582
 2485DOPC   PO429078   4.569  22.291  15.682
 2485DOPC   GL129079   4.549  22.141  15.382
 2485DOPC   GL229080   4.289  22.291  15.162
 2485DOPC   C1A29081   4.809  22.381  15.012
 2485DOPC   D2A29082   4.909  22.171  14.582
 2485DOPC   C3A29083   4.659  21.931  14.352
 2485DOPC   C4A29084   4.359  21.601  14.272
 2485DOPC   C1B29085   4.349  22.351  14.752
 2485DOPC   D2B29086   4.249  22.511  14.312
 2485DOPC   C3B29087   4.329  22.561  13.962
 2485DOPC   C4B29088   4.209  22.401  13.442
 2486DOPC   NC329089  23.389  24.081  16.632
 2486DOPC   PO429090  23.779  23.891  16.472
 2486DOPC   GL129091  23.969  23.981  16.112
 2486DOPC   GL229092  23.799  23.941  15.822
 2486DOPC   C1A29093  24.269  24.201  15.712
 2486DOPC   D2A29094  24.349  24.591  15.382
 2486DOPC   C3A29095  24.549  24.551  14.942
 2486DOPC   C4A29096  24.609  24.201  14.662
 2486DOPC   C1B29097  23.649  23.651  15.542
 2486DOPC   D2B29098  23.519  23.411  15.282
 2486DOPC   C3B29099  23.489  23.521  14.802
 2486DOPC   C4B29100  23.379  23.561  14.382
 2487DOPC   NC329101  19.159  22.821  16.032
 2487DOPC   PO429102  18.969  22.901  15.672
 2487DOPC   GL129103  19.159  23.011  15.252
 2487DOPC   GL229104  19.109  22.731  15.012
 2487DOPC   C1A29105  19.169  23.221  14.852
 2487DOPC   D2A29106  19.119  23.571  14.572
 2487DOPC   C3A29107  19.029  23.621  14.222
 2487DOPC   C4A29108  18.999  23.441  13.852
 2487DOPC   C1B29109  19.489  22.811  14.762
 2487DOPC   D2B29110  19.679  23.041  14.552
 2487DOPC   C3B29111  19.429  23.311  14.312
 2487DOPC   C4B29112  19.449  23.521  13.892
 2488DOPC   NC329113  16.879  10.474  14.522
 2488DOPC   PO429114  16.919  10.884  14.422
 2488DOPC   GL129115  17.089  10.934  13.962
 2488DOPC   GL229116  17.379  10.864  14.042
 2488DOPC   C1A29117  16.979  11.044  13.602
 2488DOPC   D2A29118  16.749  10.874  13.272
 2488DOPC   C3A29119  16.839  10.724  12.932
 2488DOPC   C4A29120  16.949  10.554  12.462
 2488DOPC   C1B29121  17.379  10.424  14.002
 2488DOPC   D2B29122  17.289  10.084  13.672
 2488DOPC   C3B29123  17.619   9.884  13.392
 2488DOPC   C4B29124  17.669   9.844  12.942
 2489DOPC   NC329125  22.459  12.584  15.382
 2489DOPC   PO429126  22.669  12.954  15.242
 2489DOPC   GL129127  22.839  13.004  14.892
 2489DOPC   GL229128  22.999  12.684  14.722
 2489DOPC   C1A29129  23.119  13.184  14.622
 2489DOPC   D2A29130  23.269  13.214  14.212
 2489DOPC   C3A29131  23.659  13.074  14.092
 2489DOPC   C4A29132  23.809  13.264  13.692
 2489DOPC   C1B29133  22.969  12.594  14.342
 2489DOPC   D2B29134  22.979  12.364  14.012
 2489DOPC   C3B29135  22.989  12.564  13.592
 2489DOPC   C4B29136  22.789  12.734  13.332
 2490DOPC   NC329137   1.809  17.084  15.602
 2490DOPC   PO429138   2.239  17.004  15.432
 2490DOPC   GL129139   2.099  17.124  15.102
 2490DOPC   GL229140   2.259  17.314  15.012
 2490DOPC   C1A29141   1.709  17.014  14.812
 2490DOPC   D2A29142   1.329  17.234  14.672
 2490DOPC   C3A29143   0.969  17.154  14.502
 2490DOPC   C4A29144   0.579  17.124  14.552
 2490DOPC   C1B29145   2.079  17.284  14.562
 2490DOPC   D2B29146   1.839  17.234  14.152
 2490DOPC   C3B29147   1.679  17.514  13.922
 2490DOPC   C4B29148   1.479  17.834  13.662
 2491DOPC   NC329149  25.676   2.924  15.452
 2491DOPC   PO429150  26.056   3.084  15.372
 2491DOPC   GL129151  25.756   3.314  15.032
 2491DOPC   GL229152  26.056   3.394  14.972
 2491DOPC   C1A29153  25.389   3.154  14.762
 2491DOPC   D2A29154  24.989   3.274  14.602
 2491DOPC   C3A29155  24.729   3.064  14.362
 2491DOPC   C4A29156  24.379   2.804  14.252
 2491DOPC   C1B29157  25.946   3.094  14.612
 2491DOPC   D2B29158  26.036   3.044  14.172
 2491DOPC   C3B29159  25.796   2.704  14.042
 2491DOPC   C4B29160  25.439   2.744  13.852
 2492DOPC   NC329161  19.009   9.774  11.002
 2492DOPC   PO429162  18.559   9.764  11.182
 2492DOPC   GL129163  18.519   9.694  11.622
 2492DOPC   GL229164  18.279   9.424  11.762
 2492DOPC   C1A29165  18.579   9.694  12.102
 2492DOPC   D2A29166  18.629   9.644  12.582
 2492DOPC   C3A29167  18.839   9.294  12.762
 2492DOPC   C4A29168  18.789   8.824  12.702
 2492DOPC   C1B29169  18.119   9.154  12.032
 2492DOPC   D2B29170  18.189   8.884  12.472
 2492DOPC   C3B29171  17.839   8.794  12.792
 2492DOPC   C4B29172  17.599   8.854  13.162
 2493DOPC   NC329173  11.009  22.641  11.402
 2493DOPC   PO429174  11.339  22.291  11.632
 2493DOPC   GL129175  11.499  22.151  11.872
 2493DOPC   GL229176  11.439  21.911  12.072
 2493DOPC   C1A29177  11.749  22.391  12.132
 2493DOPC   D2A29178  11.749  22.511  12.562
 2493DOPC   C3A29179  11.969  22.661  12.872
 2493DOPC   C4A29180  12.309  22.941  13.112
 2493DOPC   C1B29181  11.319  22.181  12.382
 2493DOPC   D2B29182  11.099  22.521  12.672
 2493DOPC   C3B29183  10.849  22.321  12.862
 2493DOPC   C4B29184  10.409  22.411  13.032
 2494DOPC   NC329185  12.499  20.114  10.632
 2494DOPC   PO429186  12.109  20.114  10.992
 2494DOPC   GL129187  11.939  19.934  11.482
 2494DOPC   GL229188  11.779  19.654  11.452
 2494DOPC   C1A29189  11.999  19.664  11.882
 2494DOPC   D2A29190  12.419  19.534  12.032
 2494DOPC   C3A29191  12.589  19.644  12.482
 2494DOPC   C4A29192  12.959  19.754  12.812
 2494DOPC   C1B29193  11.789  19.214  11.692
 2494DOPC   D2B29194  11.809  19.344  12.182
 2494DOPC   C3B29195  12.059  19.584  12.412
 2494DOPC   C4B29196  12.199  19.534  12.762
 2495DOPC   NC329197  11.349  22.161  15.262
 2495DOPC   PO429198  11.659  21.831  15.132
 2495DOPC   GL129199  11.489  21.801  14.852
 2495DOPC   GL229200  11.199  21.561  14.782
 2495DOPC   C1A29201  11.619  21.821  14.392
 2495DOPC   D2A29202  11.379  21.951  14.192
 2495DOPC   C3A29203  11.469  21.881  13.762
 2495DOPC   C4A29204  11.519  22.071  13.422
 2495DOPC   C1B29205  11.269  21.381  14.382
 2495DOPC   D2B29206  11.109  21.044  14.092
 2495DOPC   C3B29207  11.049  20.964  13.712
 2495DOPC   C4B29208  11.019  20.664  13.422
 2496DOPC   NC329209   2.869   0.074  11.942
 2496DOPC   PO429210   2.949   0.424  11.682
 2496DOPC   GL129211   3.169   0.614  11.992
 2496DOPC   GL229212   3.429   0.414  12.002
 2496DOPC   C1A29213   3.539   0.814  12.232
 2496DOPC   D2A29214   3.609   1.184  12.492
 2496DOPC   C3A29215   3.269   1.464  12.632
 2496DOPC   C4A29216   3.339   1.564  13.012
 2496DOPC   C1B29217   3.729   0.254  12.242
 2496DOPC   D2B29218   4.029   0.484  12.552
 2496DOPC   C3B29219   3.919   0.604  13.062
 2496DOPC   C4B29220   3.999   0.584  13.462
 2497DOPC   NC329221  12.869   4.314  14.682
 2497DOPC   PO429222  12.429   4.434  14.772
 2497DOPC   GL129223  12.509   4.484  14.312
 2497DOPC   GL229224  12.649   4.194  14.202
 2497DOPC   C1A29225  12.539   4.434  13.822
 2497DOPC   D2A29226  12.449   4.264  13.352
 2497DOPC   C3A29227  12.599   3.884  13.292
 2497DOPC   C4A29228  12.399   3.514  13.382
 2497DOPC   C1B29229  12.829   3.974  13.802
 2497DOPC   D2B29230  13.129   4.144  13.472
 2497DOPC   C3B29231  13.019   4.464  13.202
 2497DOPC   C4B29232  13.279   4.804  13.102
 2498DOPC   NC329233  11.609   3.364  14.512
 2498DOPC   PO429234  12.139   3.294  14.512
 2498DOPC   GL129235  12.429   3.174  14.172
 2498DOPC   GL229236  12.169   2.894  14.102
 2498DOPC   C1A29237  12.549   3.194  13.742
 2498DOPC   D2A29238  12.609   3.084  13.292
 2498DOPC   C3A29239  12.569   3.254  12.932
 2498DOPC   C4A29240  12.739   3.114  12.562
 2498DOPC   C1B29241  12.079   3.164  13.662
 2498DOPC   D2B29242  12.029   3.054  13.252
 2498DOPC   C3B29243  12.289   2.804  13.072
 2498DOPC   C4B29244  12.509   2.714  12.662
 2499DOPC   NC329245  17.519   3.594  11.382
 2499DOPC   PO429246  17.489   3.074  11.462
 2499DOPC   GL129247  17.669   3.064  11.862
 2499DOPC   GL229248  17.639   3.414  12.052
 2499DOPC   C1A29249  17.709   3.034  12.382
 2499DOPC   D2A29250  17.789   3.104  12.792
 2499DOPC   C3A29251  17.499   2.944  13.092
 2499DOPC   C4A29252  17.599   2.654  13.512
 2499DOPC   C1B29253  17.579   3.484  12.502
 2499DOPC   D2B29254  17.679   3.644  12.952
 2499DOPC   C3B29255  17.269   3.854  13.092
 2499DOPC   C4B29256  17.169   3.874  13.482
 2500DOPC   NC329257  15.909   8.924  14.592
 2500DOPC   PO429258  15.659   9.034  14.222
 2500DOPC   GL129259  15.679   8.814  13.832
 2500DOPC   GL229260  15.979   8.864  13.822
 2500DOPC   C1A29261  15.359   8.664  13.632
 2500DOPC   D2A29262  15.369   8.354  13.282
 2500DOPC   C3A29263  15.289   8.404  12.832
 2500DOPC   C4A29264  15.089   8.504  12.472
 2500DOPC   C1B29265  16.239   8.474  13.852
 2500DOPC   D2B29266  16.679   8.314  13.702
 2500DOPC   C3B29267  16.789   8.194  13.242
 2500DOPC   C4B29268  16.849   8.154  12.772
 2501DOPC   NC329269  15.579  22.161  15.522
 2501DOPC   PO429270  15.939  22.401  15.532
 2501DOPC   GL129271  15.939  22.461  15.072
 2501DOPC   GL229272  15.679  22.331  15.012
 2501DOPC   C1A29273  15.979  22.611  14.662
 2501DOPC   D2A29274  15.979  22.711  14.212
 2501DOPC   C3A29275  16.259  23.071  13.962
 2501DOPC   C4A29276  16.499  23.431  13.732
 2501DOPC   C1B29277  15.519  22.041  14.812
 2501DOPC   D2B29278  15.299  21.621  14.812
 2501DOPC   C3B29279  15.129  21.471  14.482
 2501DOPC   C4B29280  15.399  21.334  14.222
 2502DOPC   NC329281  25.826  23.191  16.152
 2502DOPC   PO429282  25.926  23.611  15.912
 2502DOPC   GL129283  25.796  23.581  15.502
 2502DOPC   GL229284  25.499  23.371  15.572
 2502DOPC   C1A29285  25.706  23.501  15.092
 2502DOPC   D2A29286  25.656  23.231  14.742
 2502DOPC   C3A29287  25.469  22.881  14.772
 2502DOPC   C4A29288  25.259  22.391  14.872
 2502DOPC   C1B29289  25.259  23.401  15.162
 2502DOPC   D2B29290  25.309  23.691  14.742
 2502DOPC   C3B29291  24.969  23.721  14.442
 2502DOPC   C4B29292  24.579  23.931  14.222
 2503DOPC   NC329293  12.499  11.474  14.002
 2503DOPC   PO429294  12.649  11.134  13.892
 2503DOPC   GL129295  12.549  11.414  13.522
 2503DOPC   GL229296  12.679  11.694  13.582
 2503DOPC   C1A29297  12.249  11.734  13.212
 2503DOPC   D2A29298  12.309  11.744  12.712
 2503DOPC   C3A29299  12.009  11.564  12.432
 2503DOPC   C4A29300  12.089  11.144  12.282
 2503DOPC   C1B29301  12.799  11.834  13.192
 2503DOPC   D2B29302  12.829  12.094  12.832
 2503DOPC   C3B29303  12.749  11.784  12.512
 2503DOPC   C4B29304  12.909  11.414  12.322
 2504DOPC   NC329305  14.589  16.014  14.802
 2504DOPC   PO429306  14.309  15.774  15.002
 2504DOPC   GL129307  14.219  15.534  14.572
 2504DOPC   GL229308  13.979  15.624  14.602
 2504DOPC   C1A29309  14.079  15.174  14.232
 2504DOPC   D2A29310  13.889  15.154  13.802
 2504DOPC   C3A29311  13.939  15.434  13.452
 2504DOPC   C4A29312  13.659  15.764  13.342
 2504DOPC   C1B29313  14.159  15.744  14.152
 2504DOPC   D2B29314  14.189  15.514  13.872
 2504DOPC   C3B29315  14.489  15.624  13.592
 2504DOPC   C4B29316  14.879  15.844  13.472
 2505DOPC   NC329317  14.739  23.831  15.332
 2505DOPC   PO429318  14.819  24.271  15.212
 2505DOPC   GL129319  14.869  24.041  14.852
 2505DOPC   GL229320  14.679  23.831  14.742
 2505DOPC   C1A29321  15.209  23.971  14.522
 2505DOPC   D2A29322  15.229  23.831  14.102
 2505DOPC   C3A29323  15.309  24.021  13.742
 2505DOPC   C4A29324  15.279  23.831  13.392
 2505DOPC   C1B29325  14.579  23.961  14.402
 2505DOPC   D2B29326  14.599  23.921  13.892
 2505DOPC   C3B29327  14.259  23.821  13.672
 2505DOPC   C4B29328  13.839  23.721  13.562
 2506DOPC   NC329329   8.279  21.961  14.742
 2506DOPC   PO429330   8.179  22.331  14.942
 2506DOPC   GL129331   8.409  22.391  14.522
 2506DOPC   GL229332   8.689  22.581  14.652
 2506DOPC   C1A29333   8.549  22.421  14.102
 2506DOPC   D2A29334   8.629  22.081  13.812
 2506DOPC   C3A29335   8.359  21.891  13.582
 2506DOPC   C4A29336   8.059  21.551  13.272
 2506DOPC   C1B29337   8.929  22.661  14.302
 2506DOPC   D2B29338   8.869  22.621  13.812
 2506DOPC   C3B29339   8.919  22.301  13.482
 2506DOPC   C4B29340   8.969  21.841  13.542
 2507DOPC   NC329341  22.439  16.014  12.212
 2507DOPC   PO429342  22.529  16.404  11.982
 2507DOPC   GL129343  22.379  16.444  12.412
 2507DOPC   GL229344  22.689  16.494  12.632
 2507DOPC   C1A29345  22.279  16.234  12.812
 2507DOPC   D2A29346  22.109  16.314  13.242
 2507DOPC   C3A29347  22.409  16.464  13.672
 2507DOPC   C4A29348  22.809  16.684  13.582
 2507DOPC   C1B29349  23.109  16.484  12.832
 2507DOPC   D2B29350  23.149  16.454  13.292
 2507DOPC   C3B29351  23.279  16.614  13.642
 2507DOPC   C4B29352  23.239  16.524  14.052
 2508DOPC   NC329353  13.349  25.571  11.112
 2508DOPC   PO429354  13.109  25.171  11.222
 2508DOPC   GL129355  12.979  25.251  11.702
 2508DOPC   GL229356  12.629  25.221  11.752
 2508DOPC   C1A29357  12.959  25.311  12.152
 2508DOPC   D2A29358  12.829  25.571  12.482
 2508DOPC   C3A29359  13.209  25.711  12.492
 2508DOPC   C4A29360  13.529  25.581  12.772
 2508DOPC   C1B29361  12.339  25.221  12.132
 2508DOPC   D2B29362  12.299  25.051  12.522
 2508DOPC   C3B29363  12.029  25.281  12.872
 2508DOPC   C4B29364  11.759  25.121  13.242
 2509DOPC   NC329365  21.769   8.854  15.322
 2509DOPC   PO429366  22.219   9.004  15.322
 2509DOPC   GL129367  22.359   8.994  14.912
 2509DOPC   GL229368  22.349   8.714  14.772
 2509DOPC   C1A29369  22.409   9.344  14.582
 2509DOPC   D2A29370  22.539   9.804  14.612
 2509DOPC   C3A29371  22.829   9.994  14.372
 2509DOPC   C4A29372  23.199  10.254  14.332
 2509DOPC   C1B29373  22.489   8.414  14.522
 2509DOPC   D2B29374  22.429   8.114  14.162
 2509DOPC   C3B29375  22.229   8.324  13.752
 2509DOPC   C4B29376  22.019   8.624  13.412
 2510DOPC   NC329377   3.599  24.691  15.272
 2510DOPC   PO429378   3.059  24.641  15.252
 2510DOPC   GL129379   3.179  24.511  14.912
 2510DOPC   GL229380   3.489  24.651  14.802
 2510DOPC   C1A29381   3.059  24.441  14.512
 2510DOPC   D2A29382   3.179  24.261  14.102
 2510DOPC   C3A29383   2.939  24.311  13.712
 2510DOPC   C4A29384   2.569  24.181  13.482
 2510DOPC   C1B29385   3.779  24.911  14.612
 2510DOPC   D2B29386   4.119  25.151  14.432
 2510DOPC   C3B29387   4.479  24.851  14.152
 2510DOPC   C4B29388   4.849  24.831  13.882
 2511DOPC   NC329389  23.509  13.884  16.052
 2511DOPC   PO429390  23.419  14.194  15.682
 2511DOPC   GL129391  23.399  14.004  15.202
 2511DOPC   GL229392  23.649  13.834  15.332
 2511DOPC   C1A29393  23.319  14.164  14.782
 2511DOPC   D2A29394  23.169  14.214  14.322
 2511DOPC   C3A29395  23.329  14.454  14.112
 2511DOPC   C4A29396  23.459  14.834  13.932
 2511DOPC   C1B29397  23.759  13.794  14.952
 2511DOPC   D2B29398  23.629  13.894  14.552
 2511DOPC   C3B29399  23.939  14.014  14.232
 2511DOPC   C4B29400  24.239  14.184  13.942
 2512DOPC   NC329401  20.839   7.184  11.552
 2512DOPC   PO429402  21.059   7.444  11.782
 2512DOPC   GL129403  21.039   7.524  12.132
 2512DOPC   GL229404  21.179   7.814  12.222
 2512DOPC   C1A29405  20.679   7.404  12.432
 2512DOPC   D2A29406  20.529   7.084  12.792
 2512DOPC   C3A29407  20.349   7.154  13.212
 2512DOPC   C4A29408  20.189   7.074  13.532
 2512DOPC   C1B29409  21.109   7.834  12.592
 2512DOPC   D2B29410  21.139   7.714  13.092
 2512DOPC   C3B29411  21.359   7.524  13.292
 2512DOPC   C4B29412  21.649   7.154  13.342
 2513DOPC   NC329413   7.789   7.814  10.882
 2513DOPC   PO429414   7.929   8.254  10.862
 2513DOPC   GL129415   8.309   8.394  11.142
 2513DOPC   GL229416   8.339   8.114  11.232
 2513DOPC   C1A29417   8.239   8.594  11.552
 2513DOPC   D2A29418   8.139   8.384  11.882
 2513DOPC   C3A29419   7.709   8.244  11.882
 2513DOPC   C4A29420   7.329   8.344  12.002
 2513DOPC   C1B29421   8.339   7.994  11.662
 2513DOPC   D2B29422   8.359   7.924  12.222
 2513DOPC   C3B29423   8.079   7.854  12.612
 2513DOPC   C4B29424   8.099   7.814  13.092
 2514DOPC   NC329425   1.829  14.884  15.882
 2514DOPC   PO429426   2.179  14.804  15.542
 2514DOPC   GL129427   2.119  14.954  15.112
 2514DOPC   GL229428   2.229  15.244  15.082
 2514DOPC   C1A29429   2.109  14.834  14.672
 2514DOPC   D2A29430   2.319  14.854  14.252
 2514DOPC   C3A29431   1.969  14.714  13.972
 2514DOPC   C4A29432   1.729  14.424  14.072
 2514DOPC   C1B29433   2.089  15.304  14.652
 2514DOPC   D2B29434   1.979  15.334  14.252
 2514DOPC   C3B29435   2.179  15.204  13.872
 2514DOPC   C4B29436   2.339  14.944  13.582
 2515DOPC   NC329437  10.139  18.874  14.952
 2515DOPC   PO429438  10.339  18.614  14.672
 2515DOPC   GL129439  10.559  18.684  14.432
 2515DOPC   GL229440  10.639  18.414  14.302
 2515DOPC   C1A29441  10.299  18.914  14.052
 2515DOPC   D2A29442   9.979  19.084  13.862
 2515DOPC   C3A29443  10.059  19.464  13.732
 2515DOPC   C4A29444  10.349  19.824  13.722
 2515DOPC   C1B29445  10.559  18.514  13.862
 2515DOPC   D2B29446  10.639  18.404  13.382
 2515DOPC   C3B29447  11.019  18.354  13.142
 2515DOPC   C4B29448  11.039  18.594  12.742
 2516DOPC   NC329449  11.769  11.614  14.532
 2516DOPC   PO429450  11.989  11.384  14.142
 2516DOPC   GL129451  12.119  11.294  13.722
 2516DOPC   GL229452  12.059  11.034  13.672
 2516DOPC   C1A29453  11.849  11.204  13.282
 2516DOPC   D2A29454  11.599  11.384  12.922
 2516DOPC   C3A29455  11.599  11.234  12.602
 2516DOPC   C4A29456  11.559  10.914  12.332
 2516DOPC   C1B29457  12.309  10.944  13.262
 2516DOPC   D2B29458  12.259  10.634  12.952
 2516DOPC   C3B29459  12.549  10.444  12.782
 2516DOPC   C4B29460  12.789  10.054  12.952
 2517DOPC   NC329461  13.969  13.374  14.952
 2517DOPC   PO429462  13.889  13.364  14.492
 2517DOPC   GL129463  13.889  13.324  14.042
 2517DOPC   GL229464  14.149  13.254  13.732
 2517DOPC   C1A29465  13.689  13.374  13.592
 2517DOPC   D2A29466  13.749  13.494  13.172
 2517DOPC   C3A29467  13.509  13.314  12.832
 2517DOPC   C4A29468  13.049  13.274  12.572
 2517DOPC   C1B29469  14.159  13.634  13.592
 2517DOPC   D2B29470  14.309  13.664  13.242
 2517DOPC   C3B29471  14.699  13.644  12.972
 2517DOPC   C4B29472  15.109  13.724  12.832
 2518DOPC   NC329473   0.869  14.934  16.102
 2518DOPC   PO429474   0.889  15.184  15.752
 2518DOPC   GL129475   0.749  15.344  15.412
 2518DOPC   GL229476   0.489  15.184  15.362
 2518DOPC   C1A29477   0.999  15.724  15.192
 2518DOPC   D2A29478   1.139  16.194  15.062
 2518DOPC   C3A29479   0.949  16.434  14.762
 2518DOPC   C4A29480   0.619  16.434  14.452
 2518DOPC   C1B29481   0.489  14.964  14.952
 2518DOPC   D2B29482   0.739  15.184  14.672
 2518DOPC   C3B29483   0.379  15.374  14.472
 2518DOPC   C4B29484   0.409  15.524  14.042
 2519DOPC   NC329485  17.519   3.184  15.132
 2519DOPC   PO429486  18.009   3.214  15.132
 2519DOPC   GL129487  17.899   3.124  14.752
 2519DOPC   GL229488  17.749   3.454  14.642
 2519DOPC   C1A29489  18.109   3.224  14.262
 2519DOPC   D2A29490  18.379   3.154  13.952
 2519DOPC   C3A29491  18.679   3.044  13.652
 2519DOPC   C4A29492  18.999   3.024  13.472
 2519DOPC   C1B29493  17.679   3.494  14.222
 2519DOPC   D2B29494  17.639   3.244  13.902
 2519DOPC   C3B29495  17.839   2.954  13.772
 2519DOPC   C4B29496  17.959   2.664  14.062
 2520DOPC   NC329497  22.659   4.874  11.762
 2520DOPC   PO429498  22.229   5.054  11.602
 2520DOPC   GL129499  22.319   5.124  11.992
 2520DOPC   GL229500  22.089   4.974  12.232
 2520DOPC   C1A29501  22.509   5.224  12.372
 2520DOPC   D2A29502  22.339   5.304  12.752
 2520DOPC   C3A29503  22.269   5.764  12.782
 2520DOPC   C4A29504  22.289   6.024  13.042
 2520DOPC   C1B29505  22.239   4.834  12.602
 2520DOPC   D2B29506  22.689   4.924  12.722
 2520DOPC   C3B29507  22.689   5.184  13.142
 2520DOPC   C4B29508  22.689   5.284  13.572
 2521DOPC   NC329509  11.099  13.694  14.452
 2521DOPC   PO429510  10.859  14.084  14.542
 2521DOPC   GL129511  10.559  14.114  14.282
 2521DOPC   GL229512  10.619  14.494  14.342
 2521DOPC   C1A29513  10.499  14.124  13.832
 2521DOPC   D2A29514  10.519  14.004  13.382
 2521DOPC   C3A29515  10.869  13.954  13.302
 2521DOPC   C4A29516  11.279  13.744  13.242
 2521DOPC   C1B29517  10.579  14.664  13.902
 2521DOPC   D2B29518  10.579  15.004  13.622
 2521DOPC   C3B29519  10.659  14.844  13.152
 2521DOPC   C4B29520  10.699  14.374  12.992
 2522DOPC   NC329521  16.269  10.434  14.652
 2522DOPC   PO429522  16.309  10.784  14.482
 2522DOPC   GL129523  16.449  10.724  14.092
 2522DOPC   GL229524  16.609  10.994  14.092
 2522DOPC   C1A29525  16.669  10.574  13.782
 2522DOPC   D2A29526  17.009  10.454  13.472
 2522DOPC   C3A29527  17.389  10.324  13.272
 2522DOPC   C4A29528  17.739  10.464  13.132
 2522DOPC   C1B29529  16.439  11.094  13.622
 2522DOPC   D2B29530  16.399  11.254  13.152
 2522DOPC   C3B29531  16.529  11.564  12.892
 2522DOPC   C4B29532  17.029  11.704  12.962
 2523DOPC   NC329533  18.119  20.894  11.572
 2523DOPC   PO429534  17.859  21.104  11.902
 2523DOPC   GL129535  17.669  21.224  12.242
 2523DOPC   GL229536  17.729  20.894  12.342
 2523DOPC   C1A29537  17.259  21.134  12.412
 2523DOPC   D2A29538  17.019  21.034  12.652
 2523DOPC   C3A29539  16.919  21.034  13.112
 2523DOPC   C4A29540  17.029  20.944  13.582
 2523DOPC   C1B29541  17.809  21.044  12.732
 2523DOPC   D2B29542  17.799  21.154  13.242
 2523DOPC   C3B29543  17.949  20.874  13.492
 2523DOPC   C4B29544  18.039  20.554  13.722
 2524DOPC   NC329545   7.169  17.914  11.182
 2524DOPC   PO429546   7.059  17.554  11.412
 2524DOPC   GL129547   7.049  17.834  11.802
 2524DOPC   GL229548   7.189  17.644  12.022
 2524DOPC   C1A29549   6.789  17.984  12.122
 2524DOPC   D2A29550   6.579  18.264  12.202
 2524DOPC   C3A29551   6.749  18.534  12.602
 2524DOPC   C4A29552   6.869  18.474  13.002
 2524DOPC   C1B29553   6.739  17.494  12.102
 2524DOPC   D2B29554   6.349  17.334  12.172
 2524DOPC   C3B29555   6.259  17.494  12.542
 2524DOPC   C4B29556   5.829  17.454  12.792
 2525DOPC   NC329557  20.529  18.514  15.622
 2525DOPC   PO429558  20.309  18.894  15.552
 2525DOPC   GL129559  20.299  18.754  15.152
 2525DOPC   GL229560  20.009  19.034  15.102
 2525DOPC   C1A29561  20.149  18.734  14.742
 2525DOPC   D2A29562  19.959  18.504  14.372
 2525DOPC   C3A29563  19.559  18.464  14.402
 2525DOPC   C4A29564  19.279  18.384  14.732
 2525DOPC   C1B29565  20.069  19.244  14.732
 2525DOPC   D2B29566  20.049  19.064  14.352
 2525DOPC   C3B29567  20.309  19.114  14.062
 2525DOPC   C4B29568  20.559  19.014  13.692
 2526DOPC   NC329569  23.389  23.551  11.832
 2526DOPC   PO429570  23.419  23.731  12.222
 2526DOPC   GL129571  23.549  23.601  12.712
 2526DOPC   GL229572  23.459  23.411  12.842
 2526DOPC   C1A29573  23.679  24.011  13.022
 2526DOPC   D2A29574  23.899  24.451  12.802
 2526DOPC   C3A29575  24.009  24.911  12.762
 2526DOPC   C4A29576  24.029  25.321  12.832
 2526DOPC   C1B29577  23.589  23.431  13.242
 2526DOPC   D2B29578  23.659  23.641  13.712
 2526DOPC   C3B29579  23.859  23.881  13.872
 2526DOPC   C4B29580  24.089  23.801  14.142
 2527DOPC   NC329581  11.219  16.334  15.142
 2527DOPC   PO429582  11.129  16.024  15.202
 2527DOPC   GL129583  11.209  16.044  14.722
 2527DOPC   GL229584  11.089  16.354  14.662
 2527DOPC   C1A29585  11.169  16.014  14.182
 2527DOPC   D2A29586  11.089  16.124  13.822
 2527DOPC   C3A29587  10.769  16.024  13.832
 2527DOPC   C4A29588  10.509  16.074  14.082
 2527DOPC   C1B29589  11.049  16.614  14.422
 2527DOPC   D2B29590  10.859  16.514  14.132
 2527DOPC   C3B29591  10.619  16.494  13.752
 2527DOPC   C4B29592  10.419  16.484  13.372
 2528DOPC   NC329593   2.069   9.634  15.652
 2528DOPC   PO429594   1.939   9.344  15.292
 2528DOPC   GL129595   2.139   9.214  14.912
 2528DOPC   GL229596   2.079   9.464  14.642
 2528DOPC   C1A29597   1.939   8.994  14.592
 2528DOPC   D2A29598   1.679   8.994  14.262
 2528DOPC   C3A29599   1.759   8.644  14.082
 2528DOPC   C4A29600   2.099   8.364  13.812
 2528DOPC   C1B29601   1.849   9.444  14.272
 2528DOPC   D2B29602   1.849   9.354  13.882
 2528DOPC   C3B29603   2.159   9.404  13.522
 2528DOPC   C4B29604   2.219   9.824  13.272
 2529DOPC   NC329605   2.259  17.624  11.592
 2529DOPC   PO429606   1.869  17.824  11.952
 2529DOPC   GL129607   1.839  17.864  12.302
 2529DOPC   GL229608   1.599  17.664  12.452
 2529DOPC   C1A29609   1.569  18.074  12.792
 2529DOPC   D2A29610   1.449  17.974  13.122
 2529DOPC   C3A29611   1.419  17.554  13.232
 2529DOPC   C4A29612   1.479  17.224  13.562
 2529DOPC   C1B29613   1.729  17.534  12.792
 2529DOPC   D2B29614   1.879  17.784  13.202
 2529DOPC   C3B29615   1.979  17.484  13.502
 2529DOPC   C4B29616   2.239  17.344  13.822
 2530DOPC   NC329617  25.269  21.861  12.112
 2530DOPC   PO429618  25.686  21.731  12.102
 2530DOPC   GL129619  25.639  21.751  12.542
 2530DOPC   GL229620  25.359  21.681  12.642
 2530DOPC   C1A29621  25.766  21.961  12.932
 2530DOPC   D2A29622  25.966  21.861  13.272
 2530DOPC   C3A29623  26.036  22.051  13.682
 2530DOPC   C4A29624  25.856  22.271  13.952
 2530DOPC   C1B29625  25.149  21.324  12.912
 2530DOPC   D2B29626  25.269  21.204  13.272
 2530DOPC   C3B29627  25.429  21.244  13.702
 2530DOPC   C4B29628  25.399  20.824  13.962
 2531DOPC   NC329629   4.789   4.284  14.922
 2531DOPC   PO429630   4.549   3.914  14.682
 2531DOPC   GL129631   4.239   4.174  14.502
 2531DOPC   GL229632   4.109   4.524  14.642
 2531DOPC   C1A29633   4.139   4.214  14.012
 2531DOPC   D2A29634   4.009   4.204  13.592
 2531DOPC   C3A29635   3.879   3.854  13.322
 2531DOPC   C4A29636   4.079   3.764  12.892
 2531DOPC   C1B29637   4.129   4.794  14.402
 2531DOPC   D2B29638   4.319   5.174  14.292
 2531DOPC   C3B29639   4.359   5.414  14.572
 2531DOPC   C4B29640   4.709   5.654  14.562
 2532DOPC   NC329641   3.959   1.694  15.202
 2532DOPC   PO429642   3.719   1.404  15.082
 2532DOPC   GL129643   3.789   1.494  14.682
 2532DOPC   GL229644   4.129   1.184  14.602
 2532DOPC   C1A29645   3.959   1.644  14.312
 2532DOPC   D2A29646   4.139   1.894  13.912
 2532DOPC   C3A29647   4.499   1.984  14.042
 2532DOPC   C4A29648   4.779   1.744  14.342
 2532DOPC   C1B29649   4.049   1.034  14.192
 2532DOPC   D2B29650   3.699   0.934  13.812
 2532DOPC   C3B29651   3.879   1.064  13.452
 2532DOPC   C4B29652   3.559   0.994  13.152
 2533DOPC   NC329653   2.009   1.564  15.332
 2533DOPC   PO429654   2.079   1.924  15.382
 2533DOPC   GL129655   2.189   1.924  14.912
 2533DOPC   GL229656   2.019   1.744  14.892
 2533DOPC   C1A29657   2.129   2.194  14.492
 2533DOPC   D2A29658   2.229   2.494  14.202
 2533DOPC   C3A29659   2.119   2.414  13.782
 2533DOPC   C4A29660   2.079   2.844  13.432
 2533DOPC   C1B29661   2.309   1.624  14.622
 2533DOPC   D2B29662   2.379   1.674  14.322
 2533DOPC   C3B29663   2.299   1.994  14.102
 2533DOPC   C4B29664   2.589   2.254  13.902
 2534DOPC   NC329665  16.229   5.454  14.842
 2534DOPC   PO429666  16.609   5.144  15.022
 2534DOPC   GL129667  16.639   5.124  14.562
 2534DOPC   GL229668  16.469   5.324  14.302
 2534DOPC   C1A29669  16.909   5.504  14.282
 2534DOPC   D2A29670  17.009   5.604  13.942
 2534DOPC   C3A29671  17.119   5.244  13.702
 2534DOPC   C4A29672  17.209   5.184  13.282
 2534DOPC   C1B29673  16.499   5.584  13.942
 2534DOPC   D2B29674  16.179   5.454  13.582
 2534DOPC   C3B29675  16.319   5.154  13.342
 2534DOPC   C4B29676  16.479   5.014  13.042
 2535DOPC   NC329677  18.549   7.914  11.192
 2535DOPC   PO429678  18.559   7.564  10.912
 2535DOPC   GL129679  18.349   7.344  11.212
 2535DOPC   GL229680  18.139   7.634  11.242
 2535DOPC   C1A29681  18.439   7.394  11.572
 2535DOPC   D2A29682  18.709   7.114  11.972
 2535DOPC   C3A29683  18.679   7.044  12.482
 2535DOPC   C4A29684  18.529   7.124  12.882
 2535DOPC   C1B29685  18.219   7.934  11.662
 2535DOPC   D2B29686  18.479   8.194  11.952
 2535DOPC   C3B29687  18.799   8.004  12.242
 2535DOPC   C4B29688  19.239   7.864  12.232
 2536DOPC   NC329689  16.829   0.694  11.522
 2536DOPC   PO429690  16.859   0.674  12.002
 2536DOPC   GL129691  17.129   0.744  12.212
 2536DOPC   GL229692  17.389   0.564  12.152
 2536DOPC   C1A29693  17.279   0.684  12.662
 2536DOPC   D2A29694  17.659   0.674  12.982
 2536DOPC   C3A29695  18.039   0.744  12.972
 2536DOPC   C4A29696  18.519   0.764  12.872
 2536DOPC   C1B29697  17.279   0.164  12.402
 2536DOPC   D2B29698  17.069  -0.236  12.662
 2536DOPC   C3B29699  16.689  -0.176  12.832
 2536DOPC   C4B29700  16.319  -0.466  12.952
 2537DOPC   NC329701  17.499   8.294  14.672
 2537DOPC   PO429702  17.859   8.484  14.472
 2537DOPC   GL129703  17.949   8.774  14.162
 2537DOPC   GL229704  18.299   8.724  14.092
 2537DOPC   C1A29705  17.989   8.854  13.732
 2537DOPC   D2A29706  18.119   9.014  13.312
 2537DOPC   C3A29707  18.329   8.804  12.942
 2537DOPC   C4A29708  18.219   8.394  12.832
 2537DOPC   C1B29709  18.739   8.614  13.862
 2537DOPC   D2B29710  18.889   8.744  13.472
 2537DOPC   C3B29711  19.369   8.704  13.402
 2537DOPC   C4B29712  19.659   9.014  13.612
 2538DOPC   NC329713  20.869   8.194  11.302
 2538DOPC   PO429714  20.529   8.074  11.542
 2538DOPC   GL129715  20.349   8.074  11.912
 2538DOPC   GL229716  20.489   8.324  12.082
 2538DOPC   C1A29717  19.979   7.824  12.112
 2538DOPC   D2A29718  20.169   7.444  12.162
 2538DOPC   C3A29719  20.149   7.264  12.522
 2538DOPC   C4A29720  19.909   7.184  12.942
 2538DOPC   C1B29721  20.209   8.174  12.522
 2538DOPC   D2B29722  20.349   8.214  12.902
 2538DOPC   C3B29723  20.249   7.864  13.192
 2538DOPC   C4B29724  20.449   7.584  13.452
 2539DOPC   NC329725   4.109   7.774  15.022
 2539DOPC   PO429726   3.689   8.094  15.062
 2539DOPC   GL129727   3.789   8.084  14.572
 2539DOPC   GL229728   3.539   8.424  14.442
 2539DOPC   C1A29729   3.949   8.354  14.232
 2539DOPC   D2A29730   4.259   8.574  14.092
 2539DOPC   C3A29731   4.569   8.624  13.682
 2539DOPC   C4A29732   4.779   8.754  13.122
 2539DOPC   C1B29733   3.499   8.414  13.972
 2539DOPC   D2B29734   3.339   8.704  13.622
 2539DOPC   C3B29735   2.899   8.814  13.722
 2539DOPC   C4B29736   2.599   8.574  14.022
 2540DOPC   NC329737  10.029  14.964  11.082
 2540DOPC   PO429738   9.769  15.254  10.892
 2540DOPC   GL129739   9.749  15.254  11.342
 2540DOPC   GL229740   9.429  15.444  11.532
 2540DOPC   C1A29741   9.859  15.304  11.752
 2540DOPC   D2A29742   9.989  15.594  12.132
 2540DOPC   C3A29743  10.349  15.484  12.412
 2540DOPC   C4A29744  10.469  15.174  12.732
 2540DOPC   C1B29745   9.469  15.404  12.062
 2540DOPC   D2B29746   9.659  15.354  12.492
 2540DOPC   C3B29747   9.559  15.304  12.832
 2540DOPC   C4B29748   9.759  15.124  13.242
 2541DOPC   NC329749  20.009  23.641  12.272
 2541DOPC   PO429750  20.279  23.781  12.632
 2541DOPC   GL129751  20.419  24.141  12.852
 2541DOPC   GL229752  20.309  24.431  12.812
 2541DOPC   C1A29753  20.619  24.291  13.332
 2541DOPC   D2A29754  20.409  24.291  13.742
 2541DOPC   C3A29755  19.979  24.521  13.752
 2541DOPC   C4A29756  19.539  24.551  13.812
 2541DOPC   C1B29757  20.099  24.411  13.232
 2541DOPC   D2B29758  19.669  24.361  13.362
 2541DOPC   C3B29759  19.569  24.071  13.612
 2541DOPC   C4B29760  19.149  24.111  13.892
 2542DOPC   NC329761   4.599  25.371  15.462
 2542DOPC   PO429762   4.119  25.331  15.472
 2542DOPC   GL129763   4.309  25.441  15.002
 2542DOPC   GL229764   4.419  25.101  14.792
 2542DOPC   C1A29765   4.119  25.591  14.652
 2542DOPC   D2A29766   4.119  25.631  14.242
 2542DOPC   C3A29767   3.959  25.781  13.852
 2542DOPC   C4A29768   3.579  25.801  13.692
 2542DOPC   C1B29769   4.569  25.351  14.522
 2542DOPC   D2B29770   4.689  25.371  14.102
 2542DOPC   C3B29771   5.009  25.771  13.812
 2542DOPC   C4B29772   4.949  25.801  13.432
 2543DOPC   NC329773   8.109  10.704  14.752
 2543DOPC   PO429774   7.799  10.764  14.482
 2543DOPC   GL129775   7.619  10.764  14.082
 2543DOPC   GL229776   7.829  10.904  13.912
 2543DOPC   C1A29777   7.489  10.764  13.612
 2543DOPC   D2A29778   7.379  10.794  13.112
 2543DOPC   C3A29779   7.099  10.984  13.012
 2543DOPC   C4A29780   6.759  11.274  13.112
 2543DOPC   C1B29781   8.109  11.224  13.642
 2543DOPC   D2B29782   7.989  11.684  13.402
 2543DOPC   C3B29783   7.659  11.774  13.102
 2543DOPC   C4B29784   7.589  11.744  12.642
 2544DOPC   NC329785  14.779  23.311  15.712
 2544DOPC   PO429786  15.109  23.501  15.422
 2544DOPC   GL129787  15.309  23.501  15.122
 2544DOPC   GL229788  15.159  23.601  14.882
 2544DOPC   C1A29789  15.579  23.381  14.772
 2544DOPC   D2A29790  15.569  23.041  14.422
 2544DOPC   C3A29791  15.709  23.171  14.032
 2544DOPC   C4A29792  15.559  23.561  13.852
 2544DOPC   C1B29793  15.189  23.491  14.502
 2544DOPC   D2B29794  15.219  23.271  14.132
 2544DOPC   C3B29795  14.959  23.101  13.962
 2544DOPC   C4B29796  14.689  22.831  14.122
 2545DOPC   NC329797   6.189   1.344  15.472
 2545DOPC   PO429798   5.729   1.184  15.412
 2545DOPC   GL129799   5.899   1.334  14.972
 2545DOPC   GL229800   6.139   1.134  14.982
 2545DOPC   C1A29801   5.689   1.494  14.582
 2545DOPC   D2A29802   5.619   1.804  14.282
 2545DOPC   C3A29803   5.549   2.034  13.882
 2545DOPC   C4A29804   5.669   2.264  13.532
 2545DOPC   C1B29805   5.769   0.994  14.692
 2545DOPC   D2B29806   5.519   0.744  14.422
 2545DOPC   C3B29807   5.139   0.924  14.122
 2545DOPC   C4B29808   4.969   0.874  13.742
 2546DOPC   NC329809   4.599   1.034  15.342
 2546DOPC   PO429810   4.369   0.814  15.012
 2546DOPC   GL129811   4.689   1.174  14.802
 2546DOPC   GL229812   4.969   1.004  14.912
 2546DOPC   C1A29813   4.809   1.244  14.422
 2546DOPC   D2A29814   4.849   1.344  14.002
 2546DOPC   C3A29815   5.169   1.394  13.712
 2546DOPC   C4A29816   5.599   1.504  13.872
 2546DOPC   C1B29817   5.229   1.114  14.582
 2546DOPC   D2B29818   5.629   1.164  14.252
 2546DOPC   C3B29819   5.939   0.804  14.092
 2546DOPC   C4B29820   6.269   0.594  13.872
 2547DOPC   NC329821  18.939  16.334  11.892
 2547DOPC   PO429822  18.429  16.384  11.902
 2547DOPC   GL129823  18.399  16.374  12.402
 2547DOPC   GL229824  18.429  16.664  12.642
 2547DOPC   C1A29825  18.459  16.164  12.762
 2547DOPC   D2A29826  18.869  15.964  12.892
 2547DOPC   C3A29827  18.829  16.004  13.412
 2547DOPC   C4A29828  19.239  16.074  13.682
 2547DOPC   C1B29829  18.289  16.544  13.052
 2547DOPC   D2B29830  18.389  16.254  13.352
 2547DOPC   C3B29831  18.389  15.924  13.192
 2547DOPC   C4B29832  18.489  15.624  12.912
 2548DOPC   NC329833  19.739  13.494  15.692
 2548DOPC   PO429834  19.869  13.884  15.472
 2548DOPC   GL129835  19.609  14.314  15.262
 2548DOPC   GL229836  19.329  14.394  15.192
 2548DOPC   C1A29837  19.669  14.594  14.822
 2548DOPC   D2A29838  19.529  14.504  14.452
 2548DOPC   C3A29839  19.779  14.394  14.142
 2548DOPC   C4A29840  20.049  14.004  14.102
 2548DOPC   C1B29841  19.259  14.304  14.842
 2548DOPC   D2B29842  19.099  14.204  14.412
 2548DOPC   C3B29843  19.079  14.384  14.062
 2548DOPC   C4B29844  19.069  14.744  13.832
 2549DOPC   NC329845  17.609  17.034  15.532
 2549DOPC   PO429846  17.719  17.464  15.662
 2549DOPC   GL129847  17.849  17.334  15.242
 2549DOPC   GL229848  17.489  17.314  15.082
 2549DOPC   C1A29849  17.939  17.354  14.802
 2549DOPC   D2A29850  18.289  17.504  14.542
 2549DOPC   C3A29851  18.249  17.304  14.132
 2549DOPC   C4A29852  18.199  17.254  13.702
 2549DOPC   C1B29853  17.419  17.524  14.712
 2549DOPC   D2B29854  17.449  17.884  14.402
 2549DOPC   C3B29855  17.559  17.934  13.952
 2549DOPC   C4B29856  17.879  17.704  13.782
 2550DOPC   NC329857   6.739  13.354  14.932
 2550DOPC   PO429858   6.459  13.014  14.922
 2550DOPC   GL129859   6.539  13.044  14.592
 2550DOPC   GL229860   6.389  13.314  14.562
 2550DOPC   C1A29861   6.769  12.994  14.212
 2550DOPC   D2A29862   7.079  12.654  13.962
 2550DOPC   C3A29863   7.059  12.604  13.522
 2550DOPC   C4A29864   7.049  12.134  13.292
 2550DOPC   C1B29865   6.259  13.384  14.162
 2550DOPC   D2B29866   6.109  13.474  13.702
 2550DOPC   C3B29867   5.999  13.324  13.312
 2550DOPC   C4B29868   5.619  13.224  13.072
 2551DOPC   NC329869  19.679  25.291  15.552
 2551DOPC   PO429870  19.449  24.961  15.732
 2551DOPC   GL129871  19.329  24.931  15.392
 2551DOPC   GL229872  19.029  24.841  15.382
 2551DOPC   C1A29873  19.569  24.771  15.022
 2551DOPC   D2A29874  19.809  24.991  14.642
 2551DOPC   C3A29875  19.669  25.271  14.482
 2551DOPC   C4A29876  19.569  25.641  14.282
 2551DOPC   C1B29877  18.989  24.961  14.972
 2551DOPC   D2B29878  19.229  24.851  14.612
 2551DOPC   C3B29879  19.529  24.531  14.522
 2551DOPC   C4B29880  19.739  24.291  14.222
 2552DOPC   NC329881  14.799  20.674  15.252
 2552DOPC   PO429882  15.269  20.754  15.252
 2552DOPC   GL129883  15.579  20.864  14.962
 2552DOPC   GL229884  15.639  20.544  14.792
 2552DOPC   C1A29885  15.629  21.174  14.592
 2552DOPC   D2A29886  15.799  21.014  14.242
 2552DOPC   C3A29887  15.619  20.704  13.942
 2552DOPC   C4A29888  15.329  20.684  13.572
 2552DOPC   C1B29889  15.989  20.274  14.732
 2552DOPC   D2B29890  16.159  20.044  14.402
 2552DOPC   C3B29891  16.109  19.964  13.962
 2552DOPC   C4B29892  16.199  19.634  13.692
 2553DOPC   NC329893  18.089  17.754  11.692
 2553DOPC   PO429894  18.469  17.334  11.922
 2553DOPC   GL129895  18.559  17.384  12.292
 2553DOPC   GL229896  18.529  17.684  12.442
 2553DOPC   C1A29897  18.679  17.234  12.642
 2553DOPC   D2A29898  18.509  17.024  12.992
 2553DOPC   C3A29899  18.519  16.834  13.372
 2553DOPC   C4A29900  18.719  16.524  13.542
 2553DOPC   C1B29901  18.769  18.014  12.712
 2553DOPC   D2B29902  18.969  17.764  12.982
 2553DOPC   C3B29903  18.849  17.764  13.432
 2553DOPC   C4B29904  18.819  18.134  13.662
 2554DOPC   NC329905  12.689  12.084  13.892
 2554DOPC   PO429906  13.109  12.174  13.782
 2554DOPC   GL129907  13.149  12.224  13.392
 2554DOPC   GL229908  13.199  12.564  13.332
 2554DOPC   C1A29909  13.289  11.954  13.052
 2554DOPC   D2A29910  13.539  11.974  12.862
 2554DOPC   C3A29911  13.639  12.344  13.032
 2554DOPC   C4A29912  13.869  12.494  13.242
 2554DOPC   C1B29913  12.889  12.534  12.982
 2554DOPC   D2B29914  12.809  12.544  12.572
 2554DOPC   C3B29915  13.149  12.634  12.302
 2554DOPC   C4B29916  13.489  12.804  12.172
 2555DOPC   NC329917   9.599  18.154  14.832
 2555DOPC   PO429918   9.969  17.804  14.822
 2555DOPC   GL129919  10.039  17.664  14.492
 2555DOPC   GL229920   9.759  17.494  14.492
 2555DOPC   C1A29921  10.129  17.624  14.082
 2555DOPC   D2A29922  10.289  17.354  13.752
 2555DOPC   C3A29923  10.199  17.334  13.382
 2555DOPC   C4A29924   9.989  17.494  12.982
 2555DOPC   C1B29925   9.659  17.364  14.062
 2555DOPC   D2B29926   9.719  17.144  13.662
 2555DOPC   C3B29927   9.609  17.344  13.372
 2555DOPC   C4B29928   9.469  17.474  12.942
 2556DOPC   NC329929  17.049  11.234  14.722
 2556DOPC   PO429930  17.349  11.594  14.592
 2556DOPC   GL129931  17.579  11.284  14.282
 2556DOPC   GL229932  17.609  11.554  14.102
 2556DOPC   C1A29933  17.799  11.114  13.922
 2556DOPC   D2A29934  17.809  11.114  13.502
 2556DOPC   C3A29935  17.689  11.244  13.102
 2556DOPC   C4A29936  17.429  11.424  12.782
 2556DOPC   C1B29937  17.409  11.314  13.812
 2556DOPC   D2B29938  17.229  11.434  13.342
 2556DOPC   C3B29939  17.169  11.994  13.372
 2556DOPC   C4B29940  16.969  12.454  13.362
 2557DOPC   NC329941   8.889   5.734  14.532
 2557DOPC   PO429942   8.759   5.294  14.642
 2557DOPC   GL129943   8.659   5.184  14.142
 2557DOPC   GL229944   8.619   4.934  14.162
 2557DOPC   C1A29945   8.739   5.094  13.622
 2557DOPC   D2A29946   8.649   5.334  13.242
 2557DOPC   C3A29947   8.569   5.184  12.782
 2557DOPC   C4A29948   8.619   4.854  12.792
 2557DOPC   C1B29949   8.669   4.584  13.882
 2557DOPC   D2B29950   8.899   4.624  13.512
 2557DOPC   C3B29951   9.149   4.734  13.132
 2557DOPC   C4B29952   9.149   5.224  12.892
 2558DOPC   NC329953  14.019  15.924  11.302
 2558DOPC   PO429954  13.859  15.784  10.972
 2558DOPC   GL129955  13.839  15.454  11.262
 2558DOPC   GL229956  13.629  15.634  11.452
 2558DOPC   C1A29957  13.769  15.214  11.632
 2558DOPC   D2A29958  13.759  14.874  12.022
 2558DOPC   C3A29959  13.799  15.014  12.462
 2558DOPC   C4A29960  13.639  14.824  12.802
 2558DOPC   C1B29961  13.449  15.644  11.932
 2558DOPC   D2B29962  13.059  15.694  12.192
 2558DOPC   C3B29963  13.139  15.974  12.582
 2558DOPC   C4B29964  13.089  16.184  12.932
 2559DOPC   NC329965  15.339   4.854  15.192
 2559DOPC   PO429966  15.629   4.954  14.792
 2559DOPC   GL129967  15.569   4.894  14.342
 2559DOPC   GL229968  15.279   5.084  14.192
 2559DOPC   C1A29969  15.719   4.774  13.982
 2559DOPC   D2A29970  15.749   4.864  13.502
 2559DOPC   C3A29971  15.579   4.574  13.122
 2559DOPC   C4A29972  15.469   4.134  13.202
 2559DOPC   C1B29973  15.249   4.994  13.772
 2559DOPC   D2B29974  15.229   4.944  13.282
 2559DOPC   C3B29975  15.509   5.094  12.952
 2559DOPC   C4B29976  15.529   5.544  12.942
 2560DOPC   NC329977  18.749  23.571  12.092
 2560DOPC   PO429978  18.219  23.681  12.062
 2560DOPC   GL129979  18.019  23.881  12.492
 2560DOPC   GL229980  17.989  23.601  12.762
 2560DOPC   C1A29981  18.119  24.051  12.852
 2560DOPC   D2A29982  18.119  24.041  13.342
 2560DOPC   C3A29983  18.129  24.371  13.682
 2560DOPC   C4A29984  18.029  24.691  13.732
 2560DOPC   C1B29985  17.759  23.651  13.232
 2560DOPC   D2B29986  17.789  23.501  13.672
 2560DOPC   C3B29987  18.169  23.291  13.772
 2560DOPC   C4B29988  18.609  23.101  13.682
 2561DOPC   NC329989   2.769  18.764  15.972
 2561DOPC   PO429990   2.429  18.384  15.872
 2561DOPC   GL129991   2.399  18.244  15.432
 2561DOPC   GL229992   2.189  18.174  15.262
 2561DOPC   C1A29993   2.779  18.264  15.052
 2561DOPC   D2A29994   2.869  18.364  14.682
 2561DOPC   C3A29995   3.209  18.174  14.522
 2561DOPC   C4A29996   3.399  18.024  14.262
 2561DOPC   C1B29997   2.329  18.354  14.882
 2561DOPC   D2B29998   2.399  18.544  14.562
 2561DOPC   C3B29999   2.599  18.514  14.172
 2561DOPC   C4B30000   2.819  18.564  13.822
 2562DOPC   NC330001  24.369  18.644  16.412
 2562DOPC   PO430002  24.479  18.344  16.082
 2562DOPC   GL130003  24.619  18.174  15.762
 2562DOPC   GL230004  25.039  17.994  15.732
 2562DOPC   C1A30005  24.629  18.044  15.332
 2562DOPC   D2A30006  24.599  17.604  15.032
 2562DOPC   C3A30007  25.019  17.374  14.842
 2562DOPC   C4A30008  25.239  17.354  14.442
 2562DOPC   C1B30009  24.999  18.334  15.382
 2562DOPC   D2B30010  24.979  18.404  15.012
 2562DOPC   C3B30011  24.749  18.154  14.872
 2562DOPC   C4B30012  24.439  18.084  14.802
 2563DOPC   NC330013  20.619  20.624  15.652
 2563DOPC   PO430014  21.109  20.824  15.762
 2563DOPC   GL130015  21.229  20.844  15.422
 2563DOPC   GL230016  20.929  20.764  15.252
 2563DOPC   C1A30017  21.549  20.864  15.012
 2563DOPC   D2A30018  21.809  21.094  14.722
 2563DOPC   C3A30019  21.789  21.541  14.652
 2563DOPC   C4A30020  21.769  21.841  14.272
 2563DOPC   C1B30021  21.159  20.564  15.022
 2563DOPC   D2B30022  21.379  20.294  14.842
 2563DOPC   C3B30023  21.249  19.864  14.592
 2563DOPC   C4B30024  21.229  19.434  14.272
 2564DOPC   NC330025  22.719   9.914  11.042
 2564DOPC   PO430026  22.399  10.154  11.352
 2564DOPC   GL130027  22.229  10.004  11.772
 2564DOPC   GL230028  22.449   9.994  12.072
 2564DOPC   C1A30029  22.049   9.634  12.012
 2564DOPC   D2A30030  22.009   9.654  12.432
 2564DOPC   C3A30031  21.929   9.924  12.852
 2564DOPC   C4A30032  21.569  10.254  13.062
 2564DOPC   C1B30033  22.209  10.134  12.442
 2564DOPC   D2B30034  22.209  10.494  12.712
 2564DOPC   C3B30035  22.129  10.354  13.132
 2564DOPC   C4B30036  22.379  10.454  13.562
 2565DOPC   NC330037  17.009  20.934  15.742
 2565DOPC   PO430038  17.269  20.444  15.752
 2565DOPC   GL130039  17.239  20.514  15.342
 2565DOPC   GL230040  16.999  20.664  15.342
 2565DOPC   C1A30041  17.329  20.384  14.992
 2565DOPC   D2A30042  17.439  20.484  14.552
 2565DOPC   C3A30043  17.209  20.384  14.282
 2565DOPC   C4A30044  16.939  20.484  13.972
 2565DOPC   C1B30045  16.839  20.654  14.982
 2565DOPC   D2B30046  17.059  20.774  14.692
 2565DOPC   C3B30047  17.129  21.144  14.652
 2565DOPC   C4B30048  16.959  21.481  14.802
 2566DOPC   NC330049   5.529   1.484  11.772
 2566DOPC   PO430050   5.069   1.394  11.682
 2566DOPC   GL130051   5.119   1.624  11.992
 2566DOPC   GL230052   5.409   1.554  12.232
 2566DOPC   C1A30053   5.119   1.954  12.352
 2566DOPC   D2A30054   5.119   2.074  12.772
 2566DOPC   C3A30055   4.859   1.884  12.992
 2566DOPC   C4A30056   4.739   1.544  13.292
 2566DOPC   C1B30057   5.299   1.394  12.622
 2566DOPC   D2B30058   5.259   1.594  13.042
 2566DOPC   C3B30059   5.659   1.734  13.292
 2566DOPC   C4B30060   5.939   1.814  13.652
 2567DOPC   NC330061  17.939  17.834  16.062
 2567DOPC   PO430062  18.269  17.974  15.892
 2567DOPC   GL130063  18.359  18.024  15.472
 2567DOPC   GL230064  18.639  17.784  15.402
 2567DOPC   C1A30065  18.299  17.904  15.022
 2567DOPC   D2A30066  18.479  18.054  14.642
 2567DOPC   C3A30067  18.389  17.794  14.082
 2567DOPC   C4A30068  18.619  17.504  13.862
 2567DOPC   C1B30069  18.749  18.074  15.112
 2567DOPC   D2B30070  18.719  18.404  14.922
 2567DOPC   C3B30071  18.789  18.454  14.552
 2567DOPC   C4B30072  18.669  18.224  14.232
 2568DOPC   NC330073   4.029  13.324  14.992
 2568DOPC   PO430074   4.469  13.354  14.782
 2568DOPC   GL130075   4.729  13.544  14.542
 2568DOPC   GL230076   4.519  13.484  14.292
 2568DOPC   C1A30077   5.129  13.814  14.232
 2568DOPC   D2A30078   5.299  14.144  14.062
 2568DOPC   C3A30079   5.429  14.054  13.642
 2568DOPC   C4A30080   5.369  14.374  13.312
 2568DOPC   C1B30081   4.689  13.624  13.942
 2568DOPC   D2B30082   4.619  13.844  13.462
 2568DOPC   C3B30083   4.429  14.154  13.282
 2568DOPC   C4B30084   4.549  14.604  13.362
 2569DOPC   NC330085  23.059  15.394  15.952
 2569DOPC   PO430086  22.719  15.064  15.732
 2569DOPC   GL130087  22.819  14.914  15.282
 2569DOPC   GL230088  22.879  14.494  15.212
 2569DOPC   C1A30089  22.679  14.814  14.822
 2569DOPC   D2A30090  22.519  14.884  14.362
 2569DOPC   C3A30091  22.149  14.934  13.982
 2569DOPC   C4A30092  21.769  14.744  13.792
 2569DOPC   C1B30093  22.799  14.294  14.812
 2569DOPC   D2B30094  22.659  14.374  14.382
 2569DOPC   C3B30095  22.329  14.154  14.132
 2569DOPC   C4B30096  22.149  14.364  13.792
 2570DOPC   NC330097  24.339   5.214  15.712
 2570DOPC   PO430098  24.309   4.944  15.372
 2570DOPC   GL130099  24.199   5.094  15.022
 2570DOPC   GL230100  24.169   4.884  14.822
 2570DOPC   C1A30101  24.229   5.464  14.762
 2570DOPC   D2A30102  24.399   5.864  14.572
 2570DOPC   C3A30103  24.239   6.034  14.262
 2570DOPC   C4A30104  24.039   5.934  13.892
 2570DOPC   C1B30105  24.109   4.724  14.402
 2570DOPC   D2B30106  23.739   4.624  14.182
 2570DOPC   C3B30107  23.619   4.244  14.052
 2570DOPC   C4B30108  23.389   3.904  13.872
 2571DOPC   NC330109  11.519  14.354  10.492
 2571DOPC   PO430110  11.299  14.384  10.902
 2571DOPC   GL130111  11.449  14.254  11.332
 2571DOPC   GL230112  11.709  14.484  11.482
 2571DOPC   C1A30113  11.489  14.084  11.772
 2571DOPC   D2A30114  11.499  13.784  12.062
 2571DOPC   C3A30115  11.439  13.384  11.872
 2571DOPC   C4A30116  11.759  13.074  11.712
 2571DOPC   C1B30117  11.839  14.434  11.942
 2571DOPC   D2B30118  11.789  14.094  12.342
 2571DOPC   C3B30119  11.729  14.294  12.642
 2571DOPC   C4B30120  11.899  14.724  12.882
 2572DOPC   NC330121  18.349  13.584  11.282
 2572DOPC   PO430122  18.249  13.214  11.372
 2572DOPC   GL130123  18.009  13.084  11.732
 2572DOPC   GL230124  17.679  13.194  11.682
 2572DOPC   C1A30125  18.089  12.964  12.112
 2572DOPC   D2A30126  17.889  12.844  12.612
 2572DOPC   C3A30127  17.499  12.994  12.742
 2572DOPC   C4A30128  17.119  13.184  12.812
 2572DOPC   C1B30129  17.379  12.764  11.862
 2572DOPC   D2B30130  17.169  12.454  12.002
 2572DOPC   C3B30131  17.189  12.404  12.472
 2572DOPC   C4B30132  17.129  12.214  12.872
 2573DOPC   NC330133   8.009  22.211  11.612
 2573DOPC   PO430134   8.229  22.601  11.592
 2573DOPC   GL130135   8.189  22.701  12.032
 2573DOPC   GL230136   8.119  23.041  12.162
 2573DOPC   C1A30137   8.309  22.571  12.432
 2573DOPC   D2A30138   8.489  22.301  12.722
 2573DOPC   C3A30139   8.769  22.561  13.032
 2573DOPC   C4A30140   9.059  22.921  12.872
 2573DOPC   C1B30141   7.929  22.941  12.522
 2573DOPC   D2B30142   8.029  23.181  13.002
 2573DOPC   C3B30143   7.629  23.251  13.272
 2573DOPC   C4B30144   7.469  22.891  13.452
 2574DOPC   NC330145  21.909  25.001  16.182
 2574DOPC   PO430146  21.419  25.081  16.152
 2574DOPC   GL130147  21.299  24.721  15.762
 2574DOPC   GL230148  21.259  24.301  15.672
 2574DOPC   C1A30149  21.449  24.641  15.202
 2574DOPC   D2A30150  21.359  24.711  14.752
 2574DOPC   C3A30151  21.199  24.561  14.292
 2574DOPC   C4A30152  21.359  24.741  13.862
 2574DOPC   C1B30153  21.089  24.271  15.212
 2574DOPC   D2B30154  21.039  24.311  14.742
 2574DOPC   C3B30155  21.429  24.131  14.412
 2574DOPC   C4B30156  21.779  23.821  14.602
 2575DOPC   NC330157  23.399  25.651  16.032
 2575DOPC   PO430158  22.959  25.701  16.062
 2575DOPC   GL130159  23.009  25.671  15.652
 2575DOPC   GL230160  22.659  25.581  15.682
 2575DOPC   C1A30161  22.999  25.421  15.302
 2575DOPC   D2A30162  22.939  25.361  14.882
 2575DOPC   C3A30163  22.949  25.111  14.502
 2575DOPC   C4A30164  23.169  24.981  14.122
 2575DOPC   C1B30165  22.499  25.401  15.432
 2575DOPC   D2B30166  22.489  25.461  14.982
 2575DOPC   C3B30167  22.469  25.191  14.592
 2575DOPC   C4B30168  22.149  25.131  14.272
 2576DOPC   NC330169  14.559  11.494  14.522
 2576DOPC   PO430170  14.699  11.394  14.102
 2576DOPC   GL130171  14.619  10.994  13.872
 2576DOPC   GL230172  14.419  10.774  13.872
 2576DOPC   C1A30173  14.869  11.064  13.472
 2576DOPC   D2A30174  15.139  11.234  13.222
 2576DOPC   C3A30175  15.459  11.594  13.172
 2576DOPC   C4A30176  15.899  11.454  13.072
 2576DOPC   C1B30177  14.199  10.614  13.602
 2576DOPC   D2B30178  14.249  10.264  13.322
 2576DOPC   C3B30179  14.359  10.234  12.952
 2576DOPC   C4B30180  14.449  10.334  12.552
 2577DOPC   NC330181  17.109  22.341  11.532
 2577DOPC   PO430182  16.919  22.161  11.922
 2577DOPC   GL130183  16.959  22.381  12.302
 2577DOPC   GL230184  17.169  22.651  12.372
 2577DOPC   C1A30185  16.969  22.291  12.762
 2577DOPC   D2A30186  17.009  22.041  13.212
 2577DOPC   C3A30187  17.019  22.331  13.472
 2577DOPC   C4A30188  16.729  22.231  13.792
 2577DOPC   C1B30189  17.419  22.331  12.582
 2577DOPC   D2B30190  17.739  22.011  12.722
 2577DOPC   C3B30191  17.959  22.221  12.942
 2577DOPC   C4B30192  18.189  21.891  13.112
 2578DOPC   NC330193  20.889  19.584  15.922
 2578DOPC   PO430194  21.269  19.254  15.832
 2578DOPC   GL130195  21.049  19.284  15.492
 2578DOPC   GL230196  20.869  18.924  15.372
 2578DOPC   C1A30197  21.009  19.404  15.042
 2578DOPC   D2A30198  21.149  19.154  14.672
 2578DOPC   C3A30199  21.399  18.904  14.352
 2578DOPC   C4A30200  21.239  18.614  14.072
 2578DOPC   C1B30201  20.769  18.984  14.952
 2578DOPC   D2B30202  20.549  19.014  14.532
 2578DOPC   C3B30203  20.439  18.644  14.322
 2578DOPC   C4B30204  20.249  18.634  13.862
 2579DOPC   NC330205   7.129  21.154  11.112
 2579DOPC   PO430206   6.969  21.184  11.602
 2579DOPC   GL130207   7.049  21.274  12.002
 2579DOPC   GL230208   7.359  21.194  11.982
 2579DOPC   C1A30209   7.229  21.571  12.262
 2579DOPC   D2A30210   7.359  21.521  12.622
 2579DOPC   C3A30211   7.369  22.071  12.732
 2579DOPC   C4A30212   7.579  22.331  13.102
 2579DOPC   C1B30213   7.499  20.754  12.122
 2579DOPC   D2B30214   7.719  20.604  12.402
 2579DOPC   C3B30215   7.619  20.774  12.782
 2579DOPC   C4B30216   7.489  20.604  13.132
 2580DOPC   NC330217  15.309  12.044  14.312
 2580DOPC   PO430218  15.049  12.254  13.962
 2580DOPC   GL130219  15.369  12.334  13.642
 2580DOPC   GL230220  15.389  11.984  13.592
 2580DOPC   C1A30221  15.369  12.614  13.372
 2580DOPC   D2A30222  15.169  12.834  13.012
 2580DOPC   C3A30223  15.329  12.954  12.652
 2580DOPC   C4A30224  15.249  13.284  12.452
 2580DOPC   C1B30225  15.619  12.114  13.222
 2580DOPC   D2B30226  15.659  11.964  12.792
 2580DOPC   C3B30227  15.529  11.524  12.672
 2580DOPC   C4B30228  15.619  11.074  12.752
 2581DOPC   NC330229  16.599  10.944  10.582
 2581DOPC   PO430230  16.339  11.304  10.542
 2581DOPC   GL130231  16.129  11.064  10.912
 2581DOPC   GL230232  16.399  10.824  11.032
 2581DOPC   C1A30233  15.969  10.834  11.312
 2581DOPC   D2A30234  15.789  10.604  11.712
 2581DOPC   C3A30235  15.969  10.784  12.042
 2581DOPC   C4A30236  15.979  10.874  12.402
 2581DOPC   C1B30237  16.749  10.654  11.212
 2581DOPC   D2B30238  16.769  10.504  11.602
 2581DOPC   C3B30239  16.689  10.894  12.052
 2581DOPC   C4B30240  16.349  11.094  12.232
 2582DOPC   NC330241   8.599  22.771  11.312
 2582DOPC   PO430242   9.099  22.701  11.352
 2582DOPC   GL130243   9.249  22.601  11.752
 2582DOPC   GL230244   8.999  22.491  11.912
 2582DOPC   C1A30245   9.559  22.671  11.982
 2582DOPC   D2A30246   9.969  22.561  12.142
 2582DOPC   C3A30247  10.039  22.451  12.592
 2582DOPC   C4A30248   9.929  22.471  13.012
 2582DOPC   C1B30249   8.809  22.921  11.932
 2582DOPC   D2B30250   8.609  23.171  12.322
 2582DOPC   C3B30251   8.539  22.951  12.692
 2582DOPC   C4B30252   8.249  22.741  12.962
 2583DOPC   NC330253  22.399  14.674  11.642
 2583DOPC   PO430254  21.929  14.564  11.832
 2583DOPC   GL130255  21.839  14.784  12.272
 2583DOPC   GL230256  21.999  15.074  12.372
 2583DOPC   C1A30257  21.569  14.814  12.582
 2583DOPC   D2A30258  21.439  14.644  12.972
 2583DOPC   C3A30259  21.429  14.834  13.302
 2583DOPC   C4A30260  21.679  15.184  13.462
 2583DOPC   C1B30261  22.009  15.004  12.772
 2583DOPC   D2B30262  21.959  14.924  13.152
 2583DOPC   C3B30263  22.159  14.834  13.452
 2583DOPC   C4B30264  22.469  15.124  13.632
 2584DOPC   NC330265   1.229   8.254  11.252
 2584DOPC   PO430266   0.829   8.024  11.382
 2584DOPC   GL130267   0.589   7.874  11.722
 2584DOPC   GL230268   0.879   7.844  11.892
 2584DOPC   C1A30269   0.449   7.664  12.032
 2584DOPC   D2A30270   0.469   7.394  12.402
 2584DOPC   C3A30271   0.539   7.074  12.242
 2584DOPC   C4A30272   0.349   6.794  12.092
 2584DOPC   C1B30273   1.329   8.004  12.122
 2584DOPC   D2B30274   1.219   8.214  12.462
 2584DOPC   C3B30275   0.869   8.434  12.392
 2584DOPC   C4B30276   0.399   8.564  12.592
 2585DOPC   NC330277  22.029  11.344  15.242
 2585DOPC   PO430278  21.559  11.364  15.242
 2585DOPC   GL130279  21.319  11.374  14.912
 2585DOPC   GL230280  21.329  11.114  14.762
 2585DOPC   C1A30281  21.129  11.494  14.552
 2585DOPC   D2A30282  20.829  11.484  14.262
 2585DOPC   C3A30283  20.989  11.224  13.962
 2585DOPC   C4A30284  21.199  11.074  13.662
 2585DOPC   C1B30285  21.109  11.014  14.442
 2585DOPC   D2B30286  20.969  10.734  14.152
 2585DOPC   C3B30287  20.649  10.894  13.992
 2585DOPC   C4B30288  20.299  10.694  13.782
 2586DOPC   NC330289  24.019   6.514  15.832
 2586DOPC   PO430290  23.649   6.274  15.712
 2586DOPC   GL130291  23.649   6.524  15.292
 2586DOPC   GL230292  23.889   6.774  15.222
 2586DOPC   C1A30293  23.899   6.434  14.912
 2586DOPC   D2A30294  23.849   6.244  14.562
 2586DOPC   C3A30295  23.909   6.494  14.142
 2586DOPC   C4A30296  24.149   6.684  13.872
 2586DOPC   C1B30297  23.739   6.954  14.852
 2586DOPC   D2B30298  23.769   6.944  14.352
 2586DOPC   C3B30299  23.829   7.004  13.982
 2586DOPC   C4B30300  23.899   6.804  13.512
 2587DOPC   NC330301  11.599  13.814   9.972
 2587DOPC   PO430302  11.889  13.904  10.262
 2587DOPC   GL130303  11.979  13.524  10.462
 2587DOPC   GL230304  11.879  13.554  10.682
 2587DOPC   C1A30305  12.119  13.114  10.652
 2587DOPC   D2A30306  12.179  12.944  11.022
 2587DOPC   C3A30307  12.409  12.824  11.372
 2587DOPC   C4A30308  12.669  12.884  11.592
 2587DOPC   C1B30309  11.879  13.434  11.162
 2587DOPC   D2B30310  11.759  13.654  11.532
 2587DOPC   C3B30311  12.009  13.594  11.872
 2587DOPC   C4B30312  12.149  13.494  12.252
 2588DOPC   NC330313   7.709  25.241  15.852
 2588DOPC   PO430314   7.909  25.451  15.402
 2588DOPC   GL130315   7.859  25.501  14.962
 2588DOPC   GL230316   8.139  25.631  14.802
 2588DOPC   C1A30317   7.489  25.541  14.912
 2588DOPC   D2A30318   7.179  25.241  14.772
 2588DOPC   C3A30319   7.079  25.151  14.362
 2588DOPC   C4A30320   6.749  25.241  14.092
 2588DOPC   C1B30321   7.959  25.511  14.492
 2588DOPC   D2B30322   7.529  25.541  14.292
 2588DOPC   C3B30323   7.659  25.361  13.852
 2588DOPC   C4B30324   7.579  25.101  13.452
 2589DOPC   NC330325   6.619  14.624  14.712
 2589DOPC   PO430326   6.399  14.294  14.622
 2589DOPC   GL130327   6.279  14.154  14.222
 2589DOPC   GL230328   6.109  13.824  14.242
 2589DOPC   C1A30329   6.419  14.354  13.762
 2589DOPC   D2A30330   6.309  14.434  13.342
 2589DOPC   C3A30331   6.209  14.674  13.022
 2589DOPC   C4A30332   6.339  14.824  12.642
 2589DOPC   C1B30333   6.349  13.824  13.852
 2589DOPC   D2B30334   6.269  13.944  13.422
 2589DOPC   C3B30335   6.349  13.664  13.202
 2589DOPC   C4B30336   6.559  13.324  13.092
 2590DOPC   NC330337  15.039  15.114  10.772
 2590DOPC   PO430338  14.879  14.654  10.682
 2590DOPC   GL130339  14.769  14.404  10.992
 2590DOPC   GL230340  14.479  14.444  11.142
 2590DOPC   C1A30341  14.879  13.984  11.052
 2590DOPC   D2A30342  14.629  13.614  11.322
 2590DOPC   C3A30343  14.679  13.834  11.802
 2590DOPC   C4A30344  14.729  14.274  12.092
 2590DOPC   C1B30345  14.519  14.214  11.612
 2590DOPC   D2B30346  14.259  14.284  11.972
 2590DOPC   C3B30347  13.979  13.964  12.182
 2590DOPC   C4B30348  13.979  13.644  12.382
 2591DOPC   NC330349  14.789   4.504  14.832
 2591DOPC   PO430350  15.089   4.094  14.962
 2591DOPC   GL130351  15.009   4.074  14.452
 2591DOPC   GL230352  14.969   3.764  14.412
 2591DOPC   C1A30353  15.049   4.254  14.002
 2591DOPC   D2A30354  15.159   4.354  13.582
 2591DOPC   C3A30355  15.649   4.364  13.592
 2591DOPC   C4A30356  15.989   4.114  13.342
 2591DOPC   C1B30357  15.069   3.704  14.032
 2591DOPC   D2B30358  15.199   3.644  13.532
 2591DOPC   C3B30359  15.199   3.764  13.162
 2591DOPC   C4B30360  15.169   4.024  12.782
 2592DOPC   NC330361  18.139   4.644  15.222
 2592DOPC   PO430362  18.029   4.254  14.992
 2592DOPC   GL130363  18.259   3.984  14.632
 2592DOPC   GL230364  18.019   3.864  14.382
 2592DOPC   C1A30365  18.379   4.144  14.222
 2592DOPC   D2A30366  18.659   4.284  13.782
 2592DOPC   C3A30367  18.459   4.424  13.462
 2592DOPC   C4A30368  18.129   4.394  13.242
 2592DOPC   C1B30369  17.669   3.974  14.032
 2592DOPC   D2B30370  17.619   3.864  13.662
 2592DOPC   C3B30371  17.919   3.474  13.562
 2592DOPC   C4B30372  18.359   3.404  13.532
 2593DOPC   NC330373  19.449  13.764  11.822
 2593DOPC   PO430374  19.039  13.624  12.002
 2593DOPC   GL130375  19.349  13.384  12.292
 2593DOPC   GL230376  19.639  13.644  12.402
 2593DOPC   C1A30377  19.149  13.124  12.632
 2593DOPC   D2A30378  19.189  13.244  13.052
 2593DOPC   C3A30379  18.929  13.164  13.362
 2593DOPC   C4A30380  19.069  12.984  13.682
 2593DOPC   C1B30381  19.689  13.374  12.872
 2593DOPC   D2B30382  19.919  13.484  13.142
 2593DOPC   C3B30383  20.099  13.874  13.322
 2593DOPC   C4B30384  19.969  14.284  13.652
 2594DOPC   NC330385  13.859  19.874  15.452
 2594DOPC   PO430386  13.369  19.884  15.262
 2594DOPC   GL130387  13.339  20.154  14.932
 2594DOPC   GL230388  13.519  19.864  14.792
 2594DOPC   C1A30389  13.379  20.314  14.542
 2594DOPC   D2A30390  13.339  20.074  14.122
 2594DOPC   C3A30391  13.449  19.734  13.862
 2594DOPC   C4A30392  13.369  19.554  13.502
 2594DOPC   C1B30393  13.119  19.904  14.482
 2594DOPC   D2B30394  12.709  19.734  14.492
 2594DOPC   C3B30395  12.609  19.724  14.092
 2594DOPC   C4B30396  12.459  19.834  13.662
 2595DOPC   NC330397  18.159  14.524  11.642
 2595DOPC   PO430398  18.259  14.104  11.522
 2595DOPC   GL130399  18.269  14.184  11.992
 2595DOPC   GL230400  18.189  13.914  12.092
 2595DOPC   C1A30401  18.289  14.264  12.412
 2595DOPC   D2A30402  18.499  14.354  12.802
 2595DOPC   C3A30403  18.709  14.604  13.002
 2595DOPC   C4A30404  19.099  14.744  13.242
 2595DOPC   C1B30405  17.919  13.994  12.342
 2595DOPC   D2B30406  17.839  13.734  12.642
 2595DOPC   C3B30407  17.819  13.334  12.542
 2595DOPC   C4B30408  17.609  13.084  12.252
 2596DOPC   NC330409   9.749  13.724  10.562
 2596DOPC   PO430410   9.539  13.514  10.882
 2596DOPC   GL130411   9.529  13.624  11.262
 2596DOPC   GL230412   9.839  13.674  11.492
 2596DOPC   C1A30413   9.549  13.294  11.562
 2596DOPC   D2A30414   9.649  12.844  11.552
 2596DOPC   C3A30415   9.359  12.554  11.702
 2596DOPC   C4A30416   9.059  12.204  11.642
 2596DOPC   C1B30417   9.849  13.764  11.972
 2596DOPC   D2B30418   9.609  13.764  12.372
 2596DOPC   C3B30419   9.839  14.034  12.622
 2596DOPC   C4B30420   9.919  14.274  13.002
 2597DOPC   NC330421  16.679   8.314  14.732
 2597DOPC   PO430422  16.689   8.644  14.452
 2597DOPC   GL130423  16.969   8.794  14.042
 2597DOPC   GL230424  16.679   8.844  13.822
 2597DOPC   C1A30425  17.159   8.514  13.682
 2597DOPC   D2A30426  17.279   8.404  13.322
 2597DOPC   C3A30427  17.239   8.174  13.062
 2597DOPC   C4A30428  17.379   8.214  12.522
 2597DOPC   C1B30429  16.369   9.014  13.632
 2597DOPC   D2B30430  16.019   9.254  13.472
 2597DOPC   C3B30431  16.079   9.464  13.092
 2597DOPC   C4B30432  16.369   9.434  12.792
 2598DOPC   NC330433  13.899  13.784  10.102
 2598DOPC   PO430434  14.029  13.854  10.572
 2598DOPC   GL130435  14.029  13.444  10.902
 2598DOPC   GL230436  14.169  13.484  11.132
 2598DOPC   C1A30437  13.989  12.994  11.072
 2598DOPC   D2A30438  13.939  12.974  11.492
 2598DOPC   C3A30439  14.209  12.954  11.832
 2598DOPC   C4A30440  14.279  13.074  12.272
 2598DOPC   C1B30441  14.249  13.414  11.532
 2598DOPC   D2B30442  14.379  13.544  12.042
 2598DOPC   C3B30443  14.459  13.894  12.282
 2598DOPC   C4B30444  14.769  14.084  12.582
 2599DOPC   NC330445  17.519   8.274  11.072
 2599DOPC   PO430446  17.259   8.714  11.282
 2599DOPC   GL130447  17.589   8.644  11.522
 2599DOPC   GL230448  17.539   8.414  11.702
 2599DOPC   C1A30449  17.669   8.844  11.972
 2599DOPC   D2A30450  17.499   8.714  12.442
 2599DOPC   C3A30451  17.289   9.004  12.752
 2599DOPC   C4A30452  17.259   9.264  13.042
 2599DOPC   C1B30453  17.259   8.054  11.922
 2599DOPC   D2B30454  17.009   7.884  12.282
 2599DOPC   C3B30455  17.009   7.674  12.632
 2599DOPC   C4B30456  16.979   7.754  13.002
 2600DOPC   NC330457   8.349   9.334  14.862
 2600DOPC   PO430458   8.779   9.154  14.722
 2600DOPC   GL130459   8.429   9.084  14.452
 2600DOPC   GL230460   8.569   8.854  14.162
 2600DOPC   C1A30461   8.169   9.434  14.212
 2600DOPC   D2A30462   7.969   9.714  13.902
 2600DOPC   C3A30463   7.879   9.544  13.492
 2600DOPC   C4A30464   7.749   9.844  13.172
 2600DOPC   C1B30465   8.529   8.674  13.752
 2600DOPC   D2B30466   8.629   8.804  13.362
 2600DOPC   C3B30467   8.909   8.674  13.082
 2600DOPC   C4B30468   8.849   8.184  13.102
 2601DOPC   NC330469  24.909  21.771  16.492
 2601DOPC   PO430470  25.109  21.881  16.002
 2601DOPC   GL130471  25.099  22.211  15.722
 2601DOPC   GL230472  24.879  22.101  15.402
 2601DOPC   C1A30473  25.119  22.621  15.582
 2601DOPC   D2A30474  25.269  22.881  15.232
 2601DOPC   C3A30475  25.736  22.961  15.212
 2601DOPC   C4A30476  26.176  22.761  15.162
 2601DOPC   C1B30477  24.739  22.071  14.972
 2601DOPC   D2B30478  24.709  22.011  14.532
 2601DOPC   C3B30479  24.979  22.311  14.422
 2601DOPC   C4B30480  25.149  22.731  14.412
 2602DOPC   NC330481  10.679  17.514  10.802
 2602DOPC   PO430482  10.529  17.934  10.802
 2602DOPC   GL130483  10.649  18.124  11.272
 2602DOPC   GL230484  10.479  17.964  11.562
 2602DOPC   C1A30485  10.649  18.494  11.572
 2602DOPC   D2A30486  10.439  18.784  11.722
 2602DOPC   C3A30487  10.439  18.854  12.142
 2602DOPC   C4A30488  10.549  18.764  12.612
 2602DOPC   C1B30489  10.409  17.844  11.942
 2602DOPC   D2B30490  10.259  17.954  12.262
 2602DOPC   C3B30491  10.389  17.784  12.622
 2602DOPC   C4B30492  10.479  17.674  13.052
 2603DOPC   NC330493  15.269  -0.276  11.702
 2603DOPC   PO430494  15.399   0.054  11.692
 2603DOPC   GL130495  15.389   0.094  12.102
 2603DOPC   GL230496  15.519   0.404  11.992
 2603DOPC   C1A30497  14.919   0.174  12.352
 2603DOPC   D2A30498  14.779   0.364  12.802
 2603DOPC   C3A30499  14.369   0.484  12.782
 2603DOPC   C4A30500  13.979   0.244  12.842
 2603DOPC   C1B30501  15.319   0.544  12.332
 2603DOPC   D2B30502  15.159   0.644  12.792
 2603DOPC   C3B30503  15.079   0.424  13.192
 2603DOPC   C4B30504  14.579   0.444  13.312
 2604DOPC   NC330505   2.039   7.704  15.322
 2604DOPC   PO430506   2.279   7.954  15.402
 2604DOPC   GL130507   2.089   8.074  14.992
 2604DOPC   GL230508   2.379   7.804  14.872
 2604DOPC   C1A30509   1.929   8.024  14.572
 2604DOPC   D2A30510   1.979   7.814  14.172
 2604DOPC   C3A30511   2.309   7.684  13.912
 2604DOPC   C4A30512   2.329   7.664  13.502
 2604DOPC   C1B30513   2.469   7.574  14.422
 2604DOPC   D2B30514   2.619   7.374  14.192
 2604DOPC   C3B30515   2.749   7.404  13.732
 2604DOPC   C4B30516   3.099   7.354  13.542
 2605DOPC   NC330517   6.799   7.604  11.062
 2605DOPC   PO430518   6.729   7.114  11.182
 2605DOPC   GL130519   6.919   7.204  11.582
 2605DOPC   GL230520   7.259   7.364  11.632
 2605DOPC   C1A30521   6.829   7.414  11.982
 2605DOPC   D2A30522   6.659   7.744  12.032
 2605DOPC   C3A30523   6.579   7.734  12.462
 2605DOPC   C4A30524   6.529   7.584  12.882
 2605DOPC   C1B30525   7.329   7.394  12.072
 2605DOPC   D2B30526   7.419   7.194  12.392
 2605DOPC   C3B30527   7.839   7.264  12.642
 2605DOPC   C4B30528   8.079   6.894  12.632
 2606DOPC   NC330529  19.149   2.684  15.312
 2606DOPC   PO430530  19.349   3.084  15.252
 2606DOPC   GL130531  18.959   3.024  14.942
 2606DOPC   GL230532  18.839   2.644  14.922
 2606DOPC   C1A30533  18.599   3.074  14.592
 2606DOPC   D2A30534  18.349   2.784  14.332
 2606DOPC   C3A30535  18.509   2.454  14.012
 2606DOPC   C4A30536  18.719   2.524  13.612
 2606DOPC   C1B30537  18.849   2.704  14.462
 2606DOPC   D2B30538  18.839   2.794  14.102
 2606DOPC   C3B30539  18.799   3.254  14.132
 2606DOPC   C4B30540  18.889   3.664  13.882
 2607DOPC   NC330541   4.769  21.691  15.482
 2607DOPC   PO430542   4.409  21.761  15.722
 2607DOPC   GL130543   4.259  21.751  15.272
 2607DOPC   GL230544   4.279  21.481  15.262
 2607DOPC   C1A30545   4.459  21.871  14.842
 2607DOPC   D2A30546   4.729  21.531  14.672
 2607DOPC   C3A30547   5.049  21.601  14.472
 2607DOPC   C4A30548   5.289  21.871  14.432
 2607DOPC   C1B30549   4.319  21.354  14.872
 2607DOPC   D2B30550   4.129  21.134  14.532
 2607DOPC   C3B30551   4.159  21.174  14.032
 2607DOPC   C4B30552   4.099  21.264  13.722
 2608DOPC   NC330553  18.159  22.451  15.742
 2608DOPC   PO430554  18.589  22.561  15.572
 2608DOPC   GL130555  18.709  22.861  15.292
 2608DOPC   GL230556  18.689  23.221  15.392
 2608DOPC   C1A30557  18.659  22.981  14.862
 2608DOPC   D2A30558  18.459  22.951  14.492
 2608DOPC   C3A30559  18.129  23.161  14.242
 2608DOPC   C4A30560  18.099  23.581  14.242
 2608DOPC   C1B30561  18.299  23.281  15.132
 2608DOPC   D2B30562  18.149  23.201  14.772
 2608DOPC   C3B30563  17.929  22.911  14.642
 2608DOPC   C4B30564  17.959  22.471  14.782
 2609DOPC   NC330565   1.299   6.174  15.332
 2609DOPC   PO430566   1.339   5.754  15.262
 2609DOPC   GL130567   1.389   5.674  14.842
 2609DOPC   GL230568   1.439   5.484  14.562
 2609DOPC   C1A30569   1.359   5.914  14.492
 2609DOPC   D2A30570   1.399   6.414  14.492
 2609DOPC   C3A30571   1.129   6.544  14.212
 2609DOPC   C4A30572   1.289   6.814  13.892
 2609DOPC   C1B30573   1.269   5.354  14.242
 2609DOPC   D2B30574   1.069   5.514  13.822
 2609DOPC   C3B30575   1.239   5.444  13.442
 2609DOPC   C4B30576   1.029   5.634  13.022
 2610DOPC   NC330577  13.449  20.334  10.832
 2610DOPC   PO430578  13.659  20.454  11.212
 2610DOPC   GL130579  13.709  20.664  11.602
 2610DOPC   GL230580  13.899  20.864  11.792
 2610DOPC   C1A30581  13.569  20.564  12.102
 2610DOPC   D2A30582  13.499  20.204  12.482
 2610DOPC   C3A30583  13.229  20.224  12.782
 2610DOPC   C4A30584  13.079  20.494  13.102
 2610DOPC   C1B30585  13.809  21.024  12.192
 2610DOPC   D2B30586  13.899  21.174  12.572
 2610DOPC   C3B30587  13.669  21.154  12.882
 2610DOPC   C4B30588  13.299  20.974  12.992
 2611DOPC   NC330589  10.099  25.391  15.122
 2611DOPC   PO430590  10.279  25.091  14.912
 2611DOPC   GL130591   9.949  25.211  14.662
 2611DOPC   GL230592   9.989  24.921  14.392
 2611DOPC   C1A30593   9.839  25.381  14.282
 2611DOPC   D2A30594   9.799  25.171  13.902
 2611DOPC   C3A30595   9.849  25.231  13.462
 2611DOPC   C4A30596   9.969  25.691  13.312
 2611DOPC   C1B30597  10.139  24.741  14.012
 2611DOPC   D2B30598  10.149  24.411  13.742
 2611DOPC   C3B30599  10.079  24.031  13.762
 2611DOPC   C4B30600  10.429  23.791  13.932
 2612DOPC   NC330601  16.019   0.844  15.292
 2612DOPC   PO430602  15.579   1.074  15.432
 2612DOPC   GL130603  15.609   1.064  14.972
 2612DOPC   GL230604  15.699   1.334  14.742
 2612DOPC   C1A30605  15.669   0.794  14.542
 2612DOPC   D2A30606  15.899   0.534  14.422
 2612DOPC   C3A30607  16.279   0.694  14.332
 2612DOPC   C4A30608  16.499   0.964  13.962
 2612DOPC   C1B30609  15.519   1.624  14.612
 2612DOPC   D2B30610  15.159   1.754  14.532
 2612DOPC   C3B30611  14.839   1.474  14.372
 2612DOPC   C4B30612  14.609   1.244  14.102
 2613DOPC   NC330613  15.209  24.871  15.392
 2613DOPC   PO430614  15.599  24.771  15.482
 2613DOPC   GL130615  15.839  24.681  15.132
 2613DOPC   GL230616  15.929  24.361  14.942
 2613DOPC   C1A30617  15.659  24.711  14.752
 2613DOPC   D2A30618  15.549  24.991  14.472
 2613DOPC   C3A30619  15.549  24.851  14.072
 2613DOPC   C4A30620  15.879  24.991  13.802
 2613DOPC   C1B30621  16.169  24.261  14.622
 2613DOPC   D2B30622  16.309  24.281  14.232
 2613DOPC   C3B30623  16.739  24.091  14.242
 2613DOPC   C4B30624  16.949  24.051  14.602
 2614DOPC   NC330625  19.769   9.584  11.172
 2614DOPC   PO430626  19.319   9.484  11.272
 2614DOPC   GL130627  19.059   9.614  11.622
 2614DOPC   GL230628  19.019  10.004  11.502
 2614DOPC   C1A30629  18.819   9.274  11.832
 2614DOPC   D2A30630  19.129   8.894  12.062
 2614DOPC   C3A30631  19.079   8.464  12.092
 2614DOPC   C4A30632  19.039   8.114  11.812
 2614DOPC   C1B30633  19.239   9.964  11.892
 2614DOPC   D2B30634  19.059   9.714  12.082
 2614DOPC   C3B30635  19.099   9.284  12.332
 2614DOPC   C4B30636  19.329   9.074  12.522
 2615DOPC   NC330637   4.969  12.224  15.002
 2615DOPC   PO430638   4.649  12.514  14.792
 2615DOPC   GL130639   4.569  12.504  14.372
 2615DOPC   GL230640   4.339  12.674  14.162
 2615DOPC   C1A30641   4.619  12.274  13.972
 2615DOPC   D2A30642   4.409  11.914  13.682
 2615DOPC   C3A30643   4.719  11.584  13.422
 2615DOPC   C4A30644   5.139  11.434  13.372
 2615DOPC   C1B30645   4.459  12.834  13.762
 2615DOPC   D2B30646   4.269  13.104  13.382
 2615DOPC   C3B30647   3.829  13.214  13.312
 2615DOPC   C4B30648   3.579  13.704  13.192
 2616DOPC   NC330649  10.449  16.274  10.792
 2616DOPC   PO430650  10.539  16.684  10.942
 2616DOPC   GL130651  10.859  16.594  11.292
 2616DOPC   GL230652  11.099  16.764  11.342
 2616DOPC   C1A30653  11.179  16.354  11.572
 2616DOPC   D2A30654  11.189  16.364  12.122
 2616DOPC   C3A30655  11.319  16.324  12.422
 2616DOPC   C4A30656  11.299  16.234  12.832
 2616DOPC   C1B30657  10.979  16.784  11.892
 2616DOPC   D2B30658  11.029  17.004  12.222
 2616DOPC   C3B30659  11.379  17.314  12.242
 2616DOPC   C4B30660  11.569  17.464  11.882
 2617DOPC   NC330661  21.899  18.264  11.702
 2617DOPC   PO430662  21.779  18.414  12.062
 2617DOPC   GL130663  21.759  18.534  12.452
 2617DOPC   GL230664  22.029  18.634  12.512
 2617DOPC   C1A30665  21.859  18.544  12.972
 2617DOPC   D2A30666  22.259  18.584  13.312
 2617DOPC   C3A30667  22.339  18.274  13.632
 2617DOPC   C4A30668  22.429  17.994  14.012
 2617DOPC   C1B30669  22.289  18.864  12.792
 2617DOPC   D2B30670  22.319  19.184  13.162
 2617DOPC   C3B30671  22.439  19.104  13.572
 2617DOPC   C4B30672  22.489  18.714  13.772
 2618DOPC   NC330673  25.459  13.904  15.492
 2618DOPC   PO430674  25.269  14.204  15.582
 2618DOPC   GL130675  25.319  14.254  15.192
 2618DOPC   GL230676  25.429  14.014  14.922
 2618DOPC   C1A30677  24.939  14.174  14.922
 2618DOPC   D2A30678  24.529  14.484  14.832
 2618DOPC   C3A30679  24.629  14.774  14.562
 2618DOPC   C4A30680  24.849  14.824  14.202
 2618DOPC   C1B30681  25.469  14.324  14.552
 2618DOPC   D2B30682  25.429  14.784  14.412
 2618DOPC   C3B30683  25.559  15.174  14.672
 2618DOPC   C4B30684  25.736  15.544  14.902
 2619DOPC   NC330685  13.579  24.441  11.602
 2619DOPC   PO430686  13.639  23.991  11.542
 2619DOPC   GL130687  13.679  24.081  11.922
 2619DOPC   GL230688  13.729  23.831  12.132
 2619DOPC   C1A30689  13.679  24.291  12.342
 2619DOPC   D2A30690  13.489  24.351  12.652
 2619DOPC   C3A30691  13.499  24.651  12.822
 2619DOPC   C4A30692  13.609  25.061  12.842
 2619DOPC   C1B30693  13.349  23.891  12.412
 2619DOPC   D2B30694  13.309  23.891  12.782
 2619DOPC   C3B30695  12.969  23.861  13.102
 2619DOPC   C4B30696  13.059  24.001  13.542
 2620DOPC   NC330697   9.299  10.644  10.802
 2620DOPC   PO430698   9.369  10.284  10.572
 2620DOPC   GL130699   9.049  10.294  11.072
 2620DOPC   GL230700   9.269  10.184  11.202
 2620DOPC   C1A30701   8.689  10.274  11.262
 2620DOPC   D2A30702   8.399  10.154  11.642
 2620DOPC   C3A30703   8.589  10.194  11.992
 2620DOPC   C4A30704   8.859  10.444  12.232
 2620DOPC   C1B30705   9.069  10.364  11.592
 2620DOPC   D2B30706   9.229  10.644  11.852
 2620DOPC   C3B30707   9.709  10.664  11.942
 2620DOPC   C4B30708   9.859  11.034  12.212
 2621DOPC   NC330709  10.659   1.424  15.302
 2621DOPC   PO430710  10.799   1.394  14.862
 2621DOPC   GL130711  10.759   1.404  14.412
 2621DOPC   GL230712  10.919   1.504  14.292
 2621DOPC   C1A30713  10.449   1.364  14.112
 2621DOPC   D2A30714  10.159   1.404  13.692
 2621DOPC   C3A30715  10.379   1.394  13.252
 2621DOPC   C4A30716  10.539   1.354  12.872
 2621DOPC   C1B30717  11.119   1.394  13.842
 2621DOPC   D2B30718  11.089   1.634  13.592
 2621DOPC   C3B30719  11.349   1.994  13.632
 2621DOPC   C4B30720  11.689   2.264  13.562
 2622DOPC   NC330721   5.919   5.864  15.092
 2622DOPC   PO430722   5.959   5.364  15.022
 2622DOPC   GL130723   6.109   5.454  14.622
 2622DOPC   GL230724   6.079   5.584  14.372
 2622DOPC   C1A30725   5.809   5.204  14.352
 2622DOPC   D2A30726   5.719   5.044  13.942
 2622DOPC   C3A30727   5.529   5.204  13.632
 2622DOPC   C4A30728   5.489   5.034  13.292
 2622DOPC   C1B30729   6.039   5.474  13.862
 2622DOPC   D2B30730   6.429   5.424  13.482
 2622DOPC   C3B30731   6.519   4.964  13.402
 2622DOPC   C4B30732   6.339   4.784  13.152
 2623DOPC   NC330733  15.399  10.474  14.372
 2623DOPC   PO430734  15.529  10.744  14.062
 2623DOPC   GL130735  15.849  10.524  13.742
 2623DOPC   GL230736  15.679  10.284  13.452
 2623DOPC   C1A30737  16.239  10.674  13.522
 2623DOPC   D2A30738  16.539  10.384  13.322
 2623DOPC   C3A30739  16.569  10.284  12.762
 2623DOPC   C4A30740  16.519   9.904  12.382
 2623DOPC   C1B30741  16.049  10.324  13.222
 2623DOPC   D2B30742  16.279  10.694  13.052
 2623DOPC   C3B30743  16.349  10.674  12.592
 2623DOPC   C4B30744  16.369  10.404  12.322
 2624DOPC   NC330745  22.789  12.734  12.072
 2624DOPC   PO430746  23.299  12.694  12.002
 2624DOPC   GL130747  23.319  12.544  12.402
 2624DOPC   GL230748  23.039  12.764  12.582
 2624DOPC   C1A30749  23.629  12.484  12.742
 2624DOPC   D2A30750  24.009  12.384  12.762
 2624DOPC   C3A30751  24.399  12.534  12.942
 2624DOPC   C4A30752  24.689  12.684  13.212
 2624DOPC   C1B30753  23.119  12.564  12.902
 2624DOPC   D2B30754  23.189  12.214  13.152
 2624DOPC   C3B30755  23.669  12.204  13.132
 2624DOPC   C4B30756  24.099  12.464  13.302
 2625DOPC   NC330757   4.809  18.604  11.612
 2625DOPC   PO430758   4.619  18.174  11.592
 2625DOPC   GL130759   4.489  18.074  11.962
 2625DOPC   GL230760   4.389  17.884  12.102
 2625DOPC   C1A30761   4.609  18.184  12.402
 2625DOPC   D2A30762   4.969  18.304  12.642
 2625DOPC   C3A30763   4.979  18.234  13.122
 2625DOPC   C4A30764   4.679  18.484  13.342
 2625DOPC   C1B30765   4.119  17.934  12.622
 2625DOPC   D2B30766   3.839  18.134  12.962
 2625DOPC   C3B30767   3.799  18.024  13.372
 2625DOPC   C4B30768   3.789  17.914  13.842
 2626DOPC   NC330769  24.699   6.294  11.402
 2626DOPC   PO430770  24.369   6.434  11.732
 2626DOPC   GL130771  24.539   6.664  12.102
 2626DOPC   GL230772  24.309   6.834  12.212
 2626DOPC   C1A30773  24.949   6.474  12.372
 2626DOPC   D2A30774  25.259   6.594  12.662
 2626DOPC   C3A30775  25.399   6.514  13.112
 2626DOPC   C4A30776  25.589   6.294  13.442
 2626DOPC   C1B30777  24.019   6.884  12.522
 2626DOPC   D2B30778  23.869   6.804  12.902
 2626DOPC   C3B30779  24.059   6.424  13.122
 2626DOPC   C4B30780  24.299   6.334  13.412
 2627DOPC   NC330781   1.819   5.334  14.992
 2627DOPC   PO430782   2.069   5.724  14.992
 2627DOPC   GL130783   1.899   5.774  14.692
 2627DOPC   GL230784   2.009   5.594  14.512
 2627DOPC   C1A30785   1.829   6.094  14.332
 2627DOPC   D2A30786   1.479   6.284  13.992
 2627DOPC   C3A30787   1.589   6.554  13.542
 2627DOPC   C4A30788   1.559   6.604  13.052
 2627DOPC   C1B30789   2.389   5.284  14.372
 2627DOPC   D2B30790   2.549   5.144  13.982
 2627DOPC   C3B30791   2.369   5.054  13.622
 2627DOPC   C4B30792   2.339   4.764  13.282
 2628DOPC   NC330793  11.709   5.264  15.142
 2628DOPC   PO430794  11.699   5.084  14.772
 2628DOPC   GL130795  11.549   5.054  14.322
 2628DOPC   GL230796  11.559   4.804  14.112
 2628DOPC   C1A30797  11.239   5.384  13.982
 2628DOPC   D2A30798  11.029   5.414  13.572
 2628DOPC   C3A30799  10.629   5.464  13.552
 2628DOPC   C4A30800  10.189   5.404  13.472
 2628DOPC   C1B30801  11.419   4.884  13.712
 2628DOPC   D2B30802  11.559   4.764  13.352
 2628DOPC   C3B30803  11.279   4.574  13.172
 2628DOPC   C4B30804  10.969   4.754  13.432
 2629DOPC   NC330805  16.779  17.334  11.552
 2629DOPC   PO430806  17.109  17.064  11.712
 2629DOPC   GL130807  16.749  17.024  11.982
 2629DOPC   GL230808  16.799  16.724  12.262
 2629DOPC   C1A30809  16.329  17.134  12.202
 2629DOPC   D2A30810  15.929  17.434  12.152
 2629DOPC   C3A30811  15.999  17.754  12.482
 2629DOPC   C4A30812  16.189  18.084  12.702
 2629DOPC   C1B30813  16.449  16.744  12.582
 2629DOPC   D2B30814  16.369  16.654  13.042
 2629DOPC   C3B30815  16.569  16.484  13.272
 2629DOPC   C4B30816  16.839  16.234  13.672
 2630DOPC   NC330817  14.379   0.414  15.172
 2630DOPC   PO430818  14.159   0.844  15.062
 2630DOPC   GL130819  14.309   0.674  14.622
 2630DOPC   GL230820  14.529   0.414  14.692
 2630DOPC   C1A30821  14.289   0.804  14.212
 2630DOPC   D2A30822  14.129   1.124  13.942
 2630DOPC   C3A30823  14.109   1.234  13.522
 2630DOPC   C4A30824  14.239   0.854  13.232
 2630DOPC   C1B30825  14.349   0.184  14.222
 2630DOPC   D2B30826  14.519   0.124  13.812
 2630DOPC   C3B30827  14.379  -0.366  13.762
 2630DOPC   C4B30828  14.349  -0.746  14.122
 2631DOPC   NC330829   3.339   8.404  14.902
 2631DOPC   PO430830   2.999   8.184  15.002
 2631DOPC   GL130831   2.969   8.324  14.572
 2631DOPC   GL230832   2.859   8.574  14.602
 2631DOPC   C1A30833   3.159   8.104  14.222
 2631DOPC   D2A30834   3.269   7.884  13.812
 2631DOPC   C3A30835   2.859   7.864  13.502
 2631DOPC   C4A30836   2.579   8.014  13.122
 2631DOPC   C1B30837   3.079   8.594  14.192
 2631DOPC   D2B30838   3.019   8.334  13.742
 2631DOPC   C3B30839   3.359   8.244  13.422
 2631DOPC   C4B30840   3.269   7.954  13.112
 2632DOPC   NC330841  24.539   4.474  11.322
 2632DOPC   PO430842  24.229   4.354  11.502
 2632DOPC   GL130843  24.269   4.234  11.912
 2632DOPC   GL230844  24.239   3.884  12.062
 2632DOPC   C1A30845  24.449   4.234  12.352
 2632DOPC   D2A30846  24.819   4.184  12.552
 2632DOPC   C3A30847  24.769   3.934  12.992
 2632DOPC   C4A30848  25.049   3.604  13.242
 2632DOPC   C1B30849  24.039   4.034  12.452
 2632DOPC   D2B30850  23.859   4.094  12.942
 2632DOPC   C3B30851  23.779   4.004  13.312
 2632DOPC   C4B30852  23.859   3.854  13.742
 2633DOPC   NC330853  21.409   0.154  12.512
 2633DOPC   PO430854  21.139   0.534  12.512
 2633DOPC   GL130855  21.169   0.704  12.992
 2633DOPC   GL230856  21.289   0.374  13.042
 2633DOPC   C1A30857  21.209   0.604  13.492
 2633DOPC   D2A30858  21.109   0.764  13.832
 2633DOPC   C3A30859  21.419   0.834  14.002
 2633DOPC   C4A30860  21.879   0.944  14.072
 2633DOPC   C1B30861  20.919   0.244  13.282
 2633DOPC   D2B30862  20.449   0.244  13.402
 2633DOPC   C3B30863  20.219   0.334  13.712
 2633DOPC   C4B30864  20.039   0.534  14.092
 2634DOPC   NC330865  12.529  13.954  14.102
 2634DOPC   PO430866  12.989  13.814  14.132
 2634DOPC   GL130867  13.289  13.964  13.802
 2634DOPC   GL230868  13.699  13.844  13.762
 2634DOPC   C1A30869  13.329  14.014  13.392
 2634DOPC   D2A30870  13.179  14.184  13.092
 2634DOPC   C3A30871  13.369  14.384  12.702
 2634DOPC   C4A30872  13.319  14.754  12.412
 2634DOPC   C1B30873  13.919  13.914  13.332
 2634DOPC   D2B30874  14.219  14.174  13.282
 2634DOPC   C3B30875  14.209  14.504  13.192
 2634DOPC   C4B30876  14.489  14.784  13.282
 2635DOPC   NC330877   1.289   5.464  10.932
 2635DOPC   PO430878   1.059   5.194  11.232
 2635DOPC   GL130879   1.049   5.184  11.752
 2635DOPC   GL230880   0.779   5.164  11.902
 2635DOPC   C1A30881   1.179   5.384  12.122
 2635DOPC   D2A30882   1.259   5.374  12.532
 2635DOPC   C3A30883   1.479   5.534  12.912
 2635DOPC   C4A30884   1.689   5.474  13.232
 2635DOPC   C1B30885   0.649   4.974  12.282
 2635DOPC   D2B30886   0.669   4.734  12.652
 2635DOPC   C3B30887   0.529   5.024  13.102
 2635DOPC   C4B30888   0.339   4.794  13.502
 2636DOPC   NC330889   5.689  15.984  14.912
 2636DOPC   PO430890   5.879  15.654  15.022
 2636DOPC   GL130891   5.499  15.414  14.802
 2636DOPC   GL230892   5.579  15.284  14.482
 2636DOPC   C1A30893   5.119  15.424  14.582
 2636DOPC   D2A30894   4.859  15.384  14.222
 2636DOPC   C3A30895   4.679  15.664  14.032
 2636DOPC   C4A30896   4.639  15.894  13.692
 2636DOPC   C1B30897   5.779  15.414  14.182
 2636DOPC   D2B30898   5.649  15.674  13.802
 2636DOPC   C3B30899   5.459  15.474  13.432
 2636DOPC   C4B30900   5.279  15.184  12.972
 2637DOPC   NC330901  13.119  21.164  15.112
 2637DOPC   PO430902  12.729  21.064  15.302
 2637DOPC   GL130903  12.689  21.064  14.892
 2637DOPC   GL230904  12.429  21.234  14.732
 2637DOPC   C1A30905  12.919  20.944  14.482
 2637DOPC   D2A30906  13.139  20.614  14.172
 2637DOPC   C3A30907  13.259  20.754  13.702
 2637DOPC   C4A30908  13.589  20.914  13.802
 2637DOPC   C1B30909  12.379  21.154  14.322
 2637DOPC   D2B30910  12.379  21.144  13.852
 2637DOPC   C3B30911  12.439  21.471  13.562
 2637DOPC   C4B30912  12.379  21.921  13.562
 2638DOPC   NC330913   8.089   5.484  14.702
 2638DOPC   PO430914   8.349   5.574  14.452
 2638DOPC   GL130915   8.459   5.594  14.002
 2638DOPC   GL230916   8.589   5.874  13.952
 2638DOPC   C1A30917   8.209   5.484  13.642
 2638DOPC   D2A30918   8.199   5.504  13.232
 2638DOPC   C3A30919   8.419   5.734  12.922
 2638DOPC   C4A30920   8.479   6.034  12.662
 2638DOPC   C1B30921   8.899   6.234  13.712
 2638DOPC   D2B30922   8.989   6.274  13.292
 2638DOPC   C3B30923   8.929   6.064  12.942
 2638DOPC   C4B30924   8.879   5.624  12.892
 2639DOPC   NC330925  15.889  12.784  14.222
 2639DOPC   PO430926  15.649  12.404  14.222
 2639DOPC   GL130927  15.889  12.484  13.852
 2639DOPC   GL230928  15.889  12.244  13.782
 2639DOPC   C1A30929  15.869  12.614  13.462
 2639DOPC   D2A30930  15.669  12.784  13.072
 2639DOPC   C3A30931  15.379  12.434  12.822
 2639DOPC   C4A30932  15.399  12.274  12.452
 2639DOPC   C1B30933  16.199  12.274  13.282
 2639DOPC   D2B30934  16.029  12.364  13.002
 2639DOPC   C3B30935  16.169  12.774  12.742
 2639DOPC   C4B30936  16.589  12.824  12.592
 2640DOPC   NC330937   3.209   9.934  15.622
 2640DOPC   PO430938   3.289  10.344  15.392
 2640DOPC   GL130939   3.349  10.024  15.152
 2640DOPC   GL230940   3.579  10.224  15.002
 2640DOPC   C1A30941   3.059   9.884  14.772
 2640DOPC   D2A30942   3.069  10.084  14.282
 2640DOPC   C3A30943   2.689   9.894  14.122
 2640DOPC   C4A30944   2.329   9.534  14.132
 2640DOPC   C1B30945   3.219  10.354  14.772
 2640DOPC   D2B30946   3.039  10.654  14.492
 2640DOPC   C3B30947   3.049  10.684  14.012
 2640DOPC   C4B30948   3.299  10.614  13.572
 2641DOPC   NC330949  14.409   6.614  10.802
 2641DOPC   PO430950  14.299   6.974  10.952
 2641DOPC   GL130951  14.349   7.184  11.332
 2641DOPC   GL230952  14.099   7.094  11.432
 2641DOPC   C1A30953  14.669   7.364  11.632
 2641DOPC   D2A30954  14.679   7.604  12.012
 2641DOPC   C3A30955  14.529   7.304  12.292
 2641DOPC   C4A30956  14.279   7.074  12.622
 2641DOPC   C1B30957  14.099   7.434  11.712
 2641DOPC   D2B30958  14.149   7.614  12.162
 2641DOPC   C3B30959  13.939   7.454  12.372
 2641DOPC   C4B30960  13.799   7.234  12.782
 2642DOPC   NC330961  16.979   4.904  15.332
 2642DOPC   PO430962  17.309   5.074  15.062
 2642DOPC   GL130963  17.589   5.214  14.732
 2642DOPC   GL230964  17.429   4.944  14.572
 2642DOPC   C1A30965  17.849   5.574  14.682
 2642DOPC   D2A30966  17.839   5.804  14.202
 2642DOPC   C3A30967  17.839   6.234  14.232
 2642DOPC   C4A30968  17.489   6.434  14.072
 2642DOPC   C1B30969  17.389   4.834  14.122
 2642DOPC   D2B30970  17.499   4.964  13.692
 2642DOPC   C3B30971  17.679   5.314  13.512
 2642DOPC   C4B30972  17.779   5.424  13.122
 2643DOPC   NC330973   8.159  10.794  10.752
 2643DOPC   PO430974   8.009  10.314  10.792
 2643DOPC   GL130975   7.869  10.184  11.202
 2643DOPC   GL230976   7.499  10.394  11.282
 2643DOPC   C1A30977   7.909  10.174  11.582
 2643DOPC   D2A30978   7.999  10.274  12.062
 2643DOPC   C3A30979   8.229  10.084  12.382
 2643DOPC   C4A30980   8.589   9.874  12.422
 2643DOPC   C1B30981   7.129  10.354  11.602
 2643DOPC   D2B30982   6.819  10.174  12.002
 2643DOPC   C3B30983   6.889  10.274  12.392
 2643DOPC   C4B30984   7.109  10.454  12.822
 2644DOPC   NC330985   6.859   2.784  15.072
 2644DOPC   PO430986   6.909   2.254  14.852
 2644DOPC   GL130987   6.929   2.124  14.392
 2644DOPC   GL230988   7.179   1.894  14.302
 2644DOPC   C1A30989   7.129   2.284  14.052
 2644DOPC   D2A30990   7.109   2.454  13.532
 2644DOPC   C3A30991   7.299   2.264  13.182
 2644DOPC   C4A30992   7.489   1.964  13.022
 2644DOPC   C1B30993   7.269   1.804  13.942
 2644DOPC   D2B30994   7.299   1.904  13.532
 2644DOPC   C3B30995   7.259   1.534  13.352
 2644DOPC   C4B30996   7.439   1.304  12.992
 2645DOPC   NC330997  23.399   5.034  15.422
 2645DOPC   PO430998  23.779   5.014  15.362
 2645DOPC   GL130999  23.689   4.994  14.942
 2645DOPC   GL231000  23.549   4.754  14.982
 2645DOPC   C1A31001  23.749   5.054  14.512
 2645DOPC   D2A31002  23.879   5.114  14.102
 2645DOPC   C3A31003  23.619   5.274  13.722
 2645DOPC   C4A31004  23.529   5.624  13.522
 2645DOPC   C1B31005  23.759   4.524  14.662
 2645DOPC   D2B31006  23.939   4.254  14.422
 2645DOPC   C3B31007  24.099   4.344  14.032
 2645DOPC   C4B31008  24.089   4.754  13.732
 2646DOPC   NC331009  10.389   5.654  14.642
 2646DOPC   PO431010  10.179   5.994  14.792
 2646DOPC   GL131011  10.059   5.904  14.322
 2646DOPC   GL231012   9.919   6.194  14.172
 2646DOPC   C1A31013   9.979   5.574  13.972
 2646DOPC   D2A31014   9.729   5.364  13.672
 2646DOPC   C3A31015   9.739   5.354  13.242
 2646DOPC   C4A31016   9.879   5.424  12.772
 2646DOPC   C1B31017   9.899   6.034  13.792
 2646DOPC   D2B31018   9.889   5.834  13.402
 2646DOPC   C3B31019   9.929   6.004  13.002
 2646DOPC   C4B31020   9.819   6.204  12.522
 2647DOPC   NC331021   4.799  17.974  15.432
 2647DOPC   PO431022   5.049  18.364  15.212
 2647DOPC   GL131023   5.129  18.364  14.852
 2647DOPC   GL231024   4.789  18.244  14.802
 2647DOPC   C1A31025   4.999  18.754  14.582
 2647DOPC   D2A31026   4.879  18.964  14.182
 2647DOPC   C3A31027   5.109  18.924  13.842
 2647DOPC   C4A31028   4.999  18.954  13.462
 2647DOPC   C1B31029   4.709  17.834  14.582
 2647DOPC   D2B31030   4.449  17.604  14.372
 2647DOPC   C3B31031   4.639  17.344  14.032
 2647DOPC   C4B31032   4.479  17.254  13.552
 2648DOPC   NC331033   6.319  23.671  11.222
 2648DOPC   PO431034   6.359  23.741  11.582
 2648DOPC   GL131035   6.419  23.871  11.982
 2648DOPC   GL231036   6.629  23.721  12.082
 2648DOPC   C1A31037   6.399  24.071  12.372
 2648DOPC   D2A31038   6.449  24.121  12.732
 2648DOPC   C3A31039   6.969  24.111  12.912
 2648DOPC   C4A31040   7.259  24.211  13.142
 2648DOPC   C1B31041   6.209  23.481  12.162
 2648DOPC   D2B31042   6.029  23.231  12.332
 2648DOPC   C3B31043   6.209  23.101  12.702
 2648DOPC   C4B31044   6.539  23.221  12.932
 2649DOPC   NC331045  16.749  16.264  11.832
 2649DOPC   PO431046  16.689  15.854  11.672
 2649DOPC   GL131047  16.359  15.954  11.972
 2649DOPC   GL231048  16.049  16.004  11.902
 2649DOPC   C1A31049  16.249  15.784  12.282
 2649DOPC   D2A31050  16.459  15.504  12.322
 2649DOPC   C3A31051  16.719  15.464  12.632
 2649DOPC   C4A31052  17.079  15.564  12.912
 2649DOPC   C1B31053  15.759  15.914  12.262
 2649DOPC   D2B31054  15.809  16.154  12.512
 2649DOPC   C3B31055  15.969  15.814  12.802
 2649DOPC   C4B31056  16.139  15.344  12.882
 2650DOPC   NC331057   6.259   5.894  10.942
 2650DOPC   PO431058   6.609   6.154  10.902
 2650DOPC   GL131059   6.519   6.074  11.382
 2650DOPC   GL231060   6.449   5.674  11.412
 2650DOPC   C1A31061   6.739   5.894  11.792
 2650DOPC   D2A31062   6.959   5.614  12.112
 2650DOPC   C3A31063   7.159   5.814  12.362
 2650DOPC   C4A31064   7.389   6.044  12.762
 2650DOPC   C1B31065   6.259   5.534  11.772
 2650DOPC   D2B31066   6.439   5.514  12.182
 2650DOPC   C3B31067   6.479   5.714  12.622
 2650DOPC   C4B31068   6.309   5.754  13.012
 2651DOPC   NC331069  12.729  18.434  14.602
 2651DOPC   PO431070  12.439  18.774  14.642
 2651DOPC   GL131071  12.269  18.824  14.242
 2651DOPC   GL231072  12.409  18.674  14.032
 2651DOPC   C1A31073  11.979  18.954  13.912
 2651DOPC   D2A31074  12.159  19.224  13.622
 2651DOPC   C3A31075  12.249  19.144  13.302
 2651DOPC   C4A31076  11.969  19.054  12.782
 2651DOPC   C1B31077  12.219  18.714  13.522
 2651DOPC   D2B31078  12.459  18.704  13.162
 2651DOPC   C3B31079  12.709  18.354  13.012
 2651DOPC   C4B31080  12.829  18.014  12.742
 2652DOPC   NC331081   0.649  12.144  15.782
 2652DOPC   PO431082   0.709  12.054  15.342
 2652DOPC   GL131083   0.579  11.944  14.892
 2652DOPC   GL231084   0.349  12.214  14.742
 2652DOPC   C1A31085   0.329  11.824  14.472
 2652DOPC   D2A31086   0.079  11.794  14.092
 2652DOPC   C3A31087  -0.299  11.984  14.052
 2652DOPC   C4A31088  -0.809  12.034  13.902
 2652DOPC   C1B31089   0.599  12.404  14.442
 2652DOPC   D2B31090   1.079  12.404  14.472
 2652DOPC   C3B31091   1.239  12.694  14.132
 2652DOPC   C4B31092   1.439  12.594  13.762
 2653DOPC   NC331093   6.329  10.654  14.902
 2653DOPC   PO431094   6.069  10.234  14.832
 2653DOPC   GL131095   5.879  10.524  14.442
 2653DOPC   GL231096   5.789  10.794  14.492
 2653DOPC   C1A31097   5.909  10.584  13.932
 2653DOPC   D2A31098   5.709  10.674  13.602
 2653DOPC   C3A31099   5.689  10.464  13.222
 2653DOPC   C4A31100   5.919  10.084  13.062
 2653DOPC   C1B31101   5.709  11.154  14.132
 2653DOPC   D2B31102   5.519  11.564  14.052
 2653DOPC   C3B31103   5.179  11.564  13.922
 2653DOPC   C4B31104   4.899  11.734  13.832
 2654DOPC   NC331105  17.219   3.004  15.482
 2654DOPC   PO431106  17.109   2.824  15.122
 2654DOPC   GL131107  17.039   2.594  14.672
 2654DOPC   GL231108  17.099   2.164  14.722
 2654DOPC   C1A31109  16.979   2.654  14.202
 2654DOPC   D2A31110  17.039   2.414  13.872
 2654DOPC   C3A31111  17.109   1.974  13.872
 2654DOPC   C4A31112  16.949   1.664  13.522
 2654DOPC   C1B31113  16.959   2.014  14.312
 2654DOPC   D2B31114  16.609   2.044  14.022
 2654DOPC   C3B31115  16.469   1.784  13.652
 2654DOPC   C4B31116  16.559   1.844  13.202
 2655DOPC   NC331117   9.639   3.364  14.532
 2655DOPC   PO431118   9.399   3.184  14.782
 2655DOPC   GL131119   9.169   3.254  14.292
 2655DOPC   GL231120   8.869   3.104  14.372
 2655DOPC   C1A31121   9.089   3.304  13.952
 2655DOPC   D2A31122   9.169   3.294  13.512
 2655DOPC   C3A31123   9.329   3.064  13.202
 2655DOPC   C4A31124   9.429   2.954  12.752
 2655DOPC   C1B31125   9.059   2.754  14.042
 2655DOPC   D2B31126   9.279   2.824  13.622
 2655DOPC   C3B31127   9.119   2.614  13.252
 2655DOPC   C4B31128   9.149   2.574  12.832
 2656DOPC   NC331129   2.179  17.154  11.572
 2656DOPC   PO431130   2.119  16.704  11.582
 2656DOPC   GL131131   2.019  16.834  12.032
 2656DOPC   GL231132   1.789  16.634  12.262
 2656DOPC   C1A31133   2.139  16.854  12.492
 2656DOPC   D2A31134   2.429  16.994  12.732
 2656DOPC   C3A31135   2.729  16.784  12.952
 2656DOPC   C4A31136   2.919  16.934  13.152
 2656DOPC   C1B31137   1.849  16.524  12.712
 2656DOPC   D2B31138   1.979  16.564  13.122
 2656DOPC   C3B31139   2.309  16.274  13.302
 2656DOPC   C4B31140   2.619  15.964  13.382
 2657DOPC   NC331141  21.019  15.334  12.042
 2657DOPC   PO431142  21.249  15.504  12.332
 2657DOPC   GL131143  21.549  15.324  12.532
 2657DOPC   GL231144  21.829  15.534  12.632
 2657DOPC   C1A31145  21.559  15.194  12.892
 2657DOPC   D2A31146  21.509  15.554  13.092
 2657DOPC   C3A31147  21.389  15.954  13.252
 2657DOPC   C4A31148  21.149  16.264  13.432
 2657DOPC   C1B31149  21.899  15.914  12.972
 2657DOPC   D2B31150  21.889  15.924  13.462
 2657DOPC   C3B31151  21.979  16.074  13.842
 2657DOPC   C4B31152  22.059  15.954  14.222
 2658DOPC   NC331153   2.569  23.251  16.142
 2658DOPC   PO431154   2.759  23.231  15.702
 2658DOPC   GL131155   2.819  23.101  15.262
 2658DOPC   GL231156   2.509  23.231  15.142
 2658DOPC   C1A31157   2.969  22.871  14.992
 2658DOPC   D2A31158   3.129  22.861  14.572
 2658DOPC   C3A31159   2.859  22.811  14.242
 2658DOPC   C4A31160   2.529  23.011  14.032
 2658DOPC   C1B31161   2.259  23.281  14.762
 2658DOPC   D2B31162   2.249  23.351  14.312
 2658DOPC   C3B31163   2.639  23.511  14.182
 2658DOPC   C4B31164   2.949  23.851  14.382
 2659DOPC   NC331165  17.559   5.814  11.202
 2659DOPC   PO431166  17.819   5.604  11.412
 2659DOPC   GL131167  17.859   5.654  11.762
 2659DOPC   GL231168  18.159   5.464  12.012
 2659DOPC   C1A31169  17.669   5.614  12.112
 2659DOPC   D2A31170  17.889   5.394  12.452
 2659DOPC   C3A31171  17.519   5.204  12.662
 2659DOPC   C4A31172  17.469   4.924  12.902
 2659DOPC   C1B31173  18.409   5.104  12.182
 2659DOPC   D2B31174  18.479   4.784  12.422
 2659DOPC   C3B31175  18.859   4.904  12.512
 2659DOPC   C4B31176  19.199   4.844  12.332
 2660DOPC   NC331177   9.289  22.911  15.382
 2660DOPC   PO431178   8.879  23.091  15.332
 2660DOPC   GL131179   9.099  23.171  14.832
 2660DOPC   GL231180   9.359  22.881  14.782
 2660DOPC   C1A31181   8.999  23.121  14.482
 2660DOPC   D2A31182   8.909  23.101  14.032
 2660DOPC   C3A31183   8.829  23.041  13.622
 2660DOPC   C4A31184   8.749  23.001  13.222
 2660DOPC   C1B31185   9.439  22.831  14.362
 2660DOPC   D2B31186   9.279  22.831  13.972
 2660DOPC   C3B31187   9.239  22.711  13.512
 2660DOPC   C4B31188   9.319  22.501  13.272
 2661DOPC   NC331189   9.579  11.144  14.182
 2661DOPC   PO431190   9.369  11.474  14.362
 2661DOPC   GL131191   9.429  11.574  13.902
 2661DOPC   GL231192   9.539  11.284  13.702
 2661DOPC   C1A31193   9.279  11.774  13.552
 2661DOPC   D2A31194   9.489  12.124  13.232
 2661DOPC   C3A31195   9.699  12.334  13.372
 2661DOPC   C4A31196  10.059  12.674  13.252
 2661DOPC   C1B31197   9.399  11.314  13.202
 2661DOPC   D2B31198   9.279  11.674  13.052
 2661DOPC   C3B31199   8.819  11.704  13.212
 2661DOPC   C4B31200   8.439  11.494  13.342
 2662DOPC   NC331201  22.159  19.854  15.572
 2662DOPC   PO431202  22.289  20.314  15.732
 2662DOPC   GL131203  22.289  20.584  15.472
 2662DOPC   GL231204  22.659  20.684  15.492
 2662DOPC   C1A31205  22.519  20.484  15.052
 2662DOPC   D2A31206  22.749  20.624  14.742
 2662DOPC   C3A31207  22.759  20.454  14.382
 2662DOPC   C4A31208  22.679  19.984  14.292
 2662DOPC   C1B31209  22.459  20.954  15.252
 2662DOPC   D2B31210  22.569  21.054  14.852
 2662DOPC   C3B31211  22.409  20.924  14.552
 2662DOPC   C4B31212  22.019  20.864  14.322
 2663DOPC   NC331213  12.969   1.284  14.802
 2663DOPC   PO431214  13.259   1.004  14.992
 2663DOPC   GL131215  13.299   0.824  14.582
 2663DOPC   GL231216  13.519   0.544  14.482
 2663DOPC   C1A31217  13.399   0.974  14.192
 2663DOPC   D2A31218  13.629   1.034  13.782
 2663DOPC   C3A31219  13.659   0.734  13.382
 2663DOPC   C4A31220  13.989   0.444  13.282
 2663DOPC   C1B31221  13.799   0.564  14.162
 2663DOPC   D2B31222  14.049   0.684  13.732
 2663DOPC   C3B31223  14.419   0.764  13.742
 2663DOPC   C4B31224  14.569   1.144  13.612
 2664DOPC   NC331225  16.669   6.024  11.012
 2664DOPC   PO431226  16.649   5.714  11.302
 2664DOPC   GL131227  16.269   5.824  11.592
 2664DOPC   GL231228  15.909   5.934  11.542
 2664DOPC   C1A31229  16.249   5.674  12.062
 2664DOPC   D2A31230  16.219   5.714  12.422
 2664DOPC   C3A31231  16.169   5.994  12.722
 2664DOPC   C4A31232  16.219   6.374  12.582
 2664DOPC   C1B31233  15.829   5.934  12.082
 2664DOPC   D2B31234  15.749   6.144  12.402
 2664DOPC   C3B31235  15.559   6.094  12.832
 2664DOPC   C4B31236  15.309   6.044  13.182
 2665DOPC   NC331237  10.609  18.794  10.752
 2665DOPC   PO431238  10.449  18.534  10.982
 2665DOPC   GL131239  10.149  18.314  11.252
 2665DOPC   GL231240  10.049  18.084  11.282
 2665DOPC   C1A31241  10.169  18.334  11.702
 2665DOPC   D2A31242  10.379  18.374  12.082
 2665DOPC   C3A31243  10.129  18.394  12.422
 2665DOPC   C4A31244   9.769  18.384  12.562
 2665DOPC   C1B31245   9.899  17.814  11.622
 2665DOPC   D2B31246   9.969  17.614  11.992
 2665DOPC   C3B31247  10.249  17.234  12.192
 2665DOPC   C4B31248  10.259  17.274  12.622
 2666DOPC   NC331249  16.579  13.094  14.952
 2666DOPC   PO431250  16.829  12.974  14.492
 2666DOPC   GL131251  16.889  13.034  14.112
 2666DOPC   GL231252  17.179  12.824  14.062
 2666DOPC   C1A31253  16.829  12.974  13.712
 2666DOPC   D2A31254  16.879  12.984  13.302
 2666DOPC   C3A31255  16.679  13.204  13.012
 2666DOPC   C4A31256  16.639  13.474  12.662
 2666DOPC   C1B31257  17.319  12.734  13.542
 2666DOPC   D2B31258  17.769  12.764  13.512
 2666DOPC   C3B31259  17.929  13.154  13.152
 2666DOPC   C4B31260  18.029  13.564  13.062
 2667DOPC   NC331261   5.639   5.094  15.792
 2667DOPC   PO431262   5.619   5.134  15.242
 2667DOPC   GL131263   5.329   5.154  14.872
 2667DOPC   GL231264   5.409   5.014  14.462
 2667DOPC   C1A31265   5.159   5.434  14.542
 2667DOPC   D2A31266   4.949   5.494  14.172
 2667DOPC   C3A31267   4.639   5.344  13.982
 2667DOPC   C4A31268   4.649   5.414  13.572
 2667DOPC   C1B31269   5.209   5.104  14.062
 2667DOPC   D2B31270   4.859   4.894  13.792
 2667DOPC   C3B31271   5.009   4.884  13.392
 2667DOPC   C4B31272   4.919   4.724  13.132
 2668DOPC   NC331273   5.499   2.324  11.562
 2668DOPC   PO431274   5.799   1.834  11.582
 2668DOPC   GL131275   5.699   1.944  12.012
 2668DOPC   GL231276   5.409   2.064  11.962
 2668DOPC   C1A31277   5.599   1.954  12.452
 2668DOPC   D2A31278   5.679   1.814  12.782
 2668DOPC   C3A31279   5.989   2.044  13.092
 2668DOPC   C4A31280   6.229   2.484  13.132
 2668DOPC   C1B31281   5.479   2.384  12.292
 2668DOPC   D2B31282   5.599   2.354  12.732
 2668DOPC   C3B31283   5.499   2.134  13.102
 2668DOPC   C4B31284   5.229   1.914  13.442
 2669DOPC   NC331285   2.749   4.684  15.262
 2669DOPC   PO431286   2.289   4.894  15.212
 2669DOPC   GL131287   2.349   4.594  14.902
 2669DOPC   GL231288   2.579   4.624  14.652
 2669DOPC   C1A31289   2.259   4.244  14.542
 2669DOPC   D2A31290   2.059   4.254  14.182
 2669DOPC   C3A31291   1.739   4.354  13.782
 2669DOPC   C4A31292   1.709   4.074  13.452
 2669DOPC   C1B31293   2.549   4.664  14.182
 2669DOPC   D2B31294   2.589   4.624  13.772
 2669DOPC   C3B31295   2.939   4.314  13.792
 2669DOPC   C4B31296   3.369   4.334  13.902
 2670DOPC   NC331297  16.159   5.194  11.072
 2670DOPC   PO431298  16.499   5.184  11.342
 2670DOPC   GL131299  16.519   5.344  11.812
 2670DOPC   GL231300  16.709   5.684  11.822
 2670DOPC   C1A31301  16.299   5.154  12.142
 2670DOPC   D2A31302  16.229   5.014  12.472
 2670DOPC   C3A31303  16.039   5.254  12.892
 2670DOPC   C4A31304  15.839   5.314  13.282
 2670DOPC   C1B31305  16.699   5.544  12.202
 2670DOPC   D2B31306  16.549   5.404  12.652
 2670DOPC   C3B31307  16.819   5.394  13.002
 2670DOPC   C4B31308  16.689   5.454  13.402
 2671DOPC   NC331309  23.129  10.624  11.612
 2671DOPC   PO431310  23.359  10.234  11.612
 2671DOPC   GL131311  23.519  10.324  12.002
 2671DOPC   GL231312  23.299  10.544  12.072
 2671DOPC   C1A31313  23.679  10.384  12.432
 2671DOPC   D2A31314  23.729  10.324  12.922
 2671DOPC   C3A31315  24.169  10.154  13.232
 2671DOPC   C4A31316  24.429   9.984  13.632
 2671DOPC   C1B31317  22.989  10.374  12.332
 2671DOPC   D2B31318  22.689  10.424  12.542
 2671DOPC   C3B31319  22.719  10.674  12.852
 2671DOPC   C4B31320  22.569  10.734  13.212
 2672DOPC   NC331321   7.659   9.824  10.872
 2672DOPC   PO431322   8.089   9.824  10.932
 2672DOPC   GL131323   8.409   9.814  11.192
 2672DOPC   GL231324   8.459   9.534  11.292
 2672DOPC   C1A31325   8.749   9.714  11.622
 2672DOPC   D2A31326   8.979   9.524  11.962
 2672DOPC   C3A31327   9.039   9.674  12.332
 2672DOPC   C4A31328   9.109   9.464  12.762
 2672DOPC   C1B31329   8.489   9.324  11.732
 2672DOPC   D2B31330   8.389   8.934  11.902
 2672DOPC   C3B31331   8.579   8.794  12.202
 2672DOPC   C4B31332   8.579   8.634  12.662
 2673DOPC   NC331333  12.419   7.894  14.212
 2673DOPC   PO431334  12.139   8.384  14.432
 2673DOPC   GL131335  12.289   8.394  13.962
 2673DOPC   GL231336  12.659   8.324  13.922
 2673DOPC   C1A31337  12.389   8.064  13.622
 2673DOPC   D2A31338  12.319   7.744  13.382
 2673DOPC   C3A31339  12.449   7.854  12.992
 2673DOPC   C4A31340  12.369   7.894  12.562
 2673DOPC   C1B31341  12.619   8.604  13.632
 2673DOPC   D2B31342  12.539   8.724  13.172
 2673DOPC   C3B31343  12.719   9.134  12.992
 2673DOPC   C4B31344  12.539   9.444  12.942
 2674DOPC   NC331345   0.919  16.404  15.432
 2674DOPC   PO431346   1.329  16.424  15.502
 2674DOPC   GL131347   1.169  16.744  15.182
 2674DOPC   GL231348   1.359  17.054  15.202
 2674DOPC   C1A31349   0.759  16.864  15.032
 2674DOPC   D2A31350   0.239  16.814  14.812
 2674DOPC   C3A31351   0.189  16.924  14.332
 2674DOPC   C4A31352   0.249  17.094  14.002
 2674DOPC   C1B31353   1.009  17.294  15.042
 2674DOPC   D2B31354   0.929  17.654  14.802
 2674DOPC   C3B31355   0.749  17.634  14.392
 2674DOPC   C4B31356   0.279  17.554  14.162
 2675DOPC   NC331357   0.569   8.784  15.342
 2675DOPC   PO431358   0.929   9.084  15.182
 2675DOPC   GL131359   0.969   9.044  14.802
 2675DOPC   GL231360   0.869   8.844  14.542
 2675DOPC   C1A31361   1.389   9.034  14.652
 2675DOPC   D2A31362   1.559   9.424  14.652
 2675DOPC   C3A31363   1.419   9.634  14.282
 2675DOPC   C4A31364   1.339   9.484  13.842
 2675DOPC   C1B31365   1.169   8.744  14.292
 2675DOPC   D2B31366   1.359   8.944  13.862
 2675DOPC   C3B31367   1.759   8.874  13.592
 2675DOPC   C4B31368   1.919   8.634  13.362
 2676DOPC   NC331369  22.649  16.204  15.912
 2676DOPC   PO431370  22.759  15.794  15.912
 2676DOPC   GL131371  22.769  15.964  15.422
 2676DOPC   GL231372  23.149  15.964  15.272
 2676DOPC   C1A31373  22.669  15.924  15.002
 2676DOPC   D2A31374  22.649  15.764  14.562
 2676DOPC   C3A31375  22.579  16.024  14.222
 2676DOPC   C4A31376  22.609  15.904  13.802
 2676DOPC   C1B31377  23.149  15.804  14.892
 2676DOPC   D2B31378  23.499  15.914  14.562
 2676DOPC   C3B31379  23.589  15.704  14.112
 2676DOPC   C4B31380  23.709  15.694  13.592
 2677DOPC   NC331381  15.929   9.504  14.422
 2677DOPC   PO431382  16.119   9.884  14.552
 2677DOPC   GL131383  16.099  10.044  14.142
 2677DOPC   GL231384  16.409  10.164  14.112
 2677DOPC   C1A31385  15.859   9.914  13.742
 2677DOPC   D2A31386  15.899   9.824  13.372
 2677DOPC   C3A31387  15.669  10.064  12.972
 2677DOPC   C4A31388  15.529  10.194  12.612
 2677DOPC   C1B31389  16.309  10.034  13.612
 2677DOPC   D2B31390  16.369   9.964  13.182
 2677DOPC   C3B31391  16.639   9.844  12.952
 2677DOPC   C4B31392  16.839   9.554  12.592
 2678DOPC   NC331393   3.989   9.234  11.322
 2678DOPC   PO431394   4.129   8.794  11.452
 2678DOPC   GL131395   4.149   8.524  11.752
 2678DOPC   GL231396   3.839   8.344  11.832
 2678DOPC   C1A31397   4.409   8.474  12.202
 2678DOPC   D2A31398   4.809   8.244  12.382
 2678DOPC   C3A31399   5.109   8.004  12.502
 2678DOPC   C4A31400   5.389   7.784  12.272
 2678DOPC   C1B31401   3.669   8.144  12.142
 2678DOPC   D2B31402   3.349   8.244  12.482
 2678DOPC   C3B31403   3.459   8.514  12.732
 2678DOPC   C4B31404   3.249   8.664  13.122
 2679DOPC   NC331405   6.459  20.084  11.452
 2679DOPC   PO431406   6.309  20.434  11.722
 2679DOPC   GL131407   6.509  20.544  12.192
 2679DOPC   GL231408   6.549  20.794  12.082
 2679DOPC   C1A31409   6.559  20.394  12.652
 2679DOPC   D2A31410   6.859  20.434  13.042
 2679DOPC   C3A31411   7.069  20.244  12.792
 2679DOPC   C4A31412   7.469  20.314  12.712
 2679DOPC   C1B31413   6.749  21.144  12.382
 2679DOPC   D2B31414   6.939  21.324  12.812
 2679DOPC   C3B31415   6.789  21.184  13.242
 2679DOPC   C4B31416   6.569  21.531  13.622
 2680DOPC   NC331417  24.849  18.004  16.232
 2680DOPC   PO431418  24.599  17.724  16.012
 2680DOPC   GL131419  24.789  17.564  15.572
 2680DOPC   GL231420  24.819  17.264  15.582
 2680DOPC   C1A31421  25.099  17.764  15.212
 2680DOPC   D2A31422  25.159  17.884  14.812
 2680DOPC   C3A31423  25.299  18.234  14.622
 2680DOPC   C4A31424  25.499  18.714  14.552
 2680DOPC   C1B31425  25.219  17.304  15.322
 2680DOPC   D2B31426  25.579  17.124  15.122
 2680DOPC   C3B31427  25.896  17.314  15.122
 2680DOPC   C4B31428  26.036  17.654  14.872
 2681DOPC   NC331429  23.989  18.334  16.172
 2681DOPC   PO431430  23.989  18.814  16.162
 2681DOPC   GL131431  23.959  18.674  15.782
 2681DOPC   GL231432  24.019  18.354  15.672
 2681DOPC   C1A31433  24.069  18.704  15.322
 2681DOPC   D2A31434  24.099  18.794  15.002
 2681DOPC   C3A31435  24.079  18.414  14.742
 2681DOPC   C4A31436  24.179  18.454  14.322
 2681DOPC   C1B31437  24.089  18.164  15.232
 2681DOPC   D2B31438  23.779  18.074  14.942
 2681DOPC   C3B31439  23.719  18.144  14.422
 2681DOPC   C4B31440  23.479  17.984  14.082
 2682DOPC   NC331441  25.249  19.504  15.652
 2682DOPC   PO431442  24.899  19.754  15.852
 2682DOPC   GL131443  24.639  19.674  15.542
 2682DOPC   GL231444  24.699  19.554  15.212
 2682DOPC   C1A31445  24.209  19.714  15.262
 2682DOPC   D2A31446  24.009  19.864  14.892
 2682DOPC   C3A31447  24.059  19.704  14.492
 2682DOPC   C4A31448  23.819  19.334  14.312
 2682DOPC   C1B31449  24.589  19.614  14.792
 2682DOPC   D2B31450  24.469  19.364  14.492
 2682DOPC   C3B31451  24.689  19.104  14.272
 2682DOPC   C4B31452  24.669  18.704  14.092
 2683DOPC   NC331453   1.549  15.984  11.162
 2683DOPC   PO431454   1.549  15.934  11.682
 2683DOPC   GL131455   1.519  16.194  12.162
 2683DOPC   GL231456   1.839  16.124  12.262
 2683DOPC   C1A31457   1.409  16.274  12.582
 2683DOPC   D2A31458   1.379  16.294  12.912
 2683DOPC   C3A31459   1.589  16.234  13.362
 2683DOPC   C4A31460   1.929  16.444  13.582
 2683DOPC   C1B31461   1.869  16.024  12.572
 2683DOPC   D2B31462   1.959  16.014  13.022
 2683DOPC   C3B31463   2.209  15.664  13.262
 2683DOPC   C4B31464   2.059  15.354  13.392
 2684DOPC   NC331465   0.919  10.424  15.672
 2684DOPC   PO431466   0.829  10.744  15.562
 2684DOPC   GL131467   0.729  10.794  14.982
 2684DOPC   GL231468   0.909  10.584  14.752
 2684DOPC   C1A31469   0.469  10.894  14.622
 2684DOPC   D2A31470   0.359  11.254  14.382
 2684DOPC   C3A31471   0.001  11.494  14.452
 2684DOPC   C4A31472  -0.029  11.634  14.842
 2684DOPC   C1B31473   0.839  10.344  14.432
 2684DOPC   D2B31474   0.529  10.104  14.142
 2684DOPC   C3B31475   0.149   9.844  14.202
 2684DOPC   C4B31476  -0.199   9.994  14.032
 2685DOPC   NC331477  14.829  21.451  15.772
 2685DOPC   PO431478  14.979  21.114  15.462
 2685DOPC   GL131479  14.909  21.104  14.982
 2685DOPC   GL231480  15.109  21.014  14.772
 2685DOPC   C1A31481  14.749  21.164  14.552
 2685DOPC   D2A31482  14.899  21.154  14.192
 2685DOPC   C3A31483  14.799  21.611  14.052
 2685DOPC   C4A31484  14.879  22.061  13.892
 2685DOPC   C1B31485  15.309  20.854  14.372
 2685DOPC   D2B31486  15.379  20.394  14.292
 2685DOPC   C3B31487  15.249  20.274  13.802
 2685DOPC   C4B31488  15.269  20.124  13.322
 2686DOPC   NC331489   3.459  12.244  15.102
 2686DOPC   PO431490   3.869  12.474  15.102
 2686DOPC   GL131491   3.669  12.574  14.752
 2686DOPC   GL231492   3.369  12.634  14.652
 2686DOPC   C1A31493   3.839  12.794  14.372
 2686DOPC   D2A31494   3.669  12.714  13.962
 2686DOPC   C3A31495   3.909  12.884  13.712
 2686DOPC   C4A31496   4.039  13.204  13.932
 2686DOPC   C1B31497   3.639  12.334  14.312
 2686DOPC   D2B31498   3.569  12.214  13.852
 2686DOPC   C3B31499   3.439  11.854  13.792
 2686DOPC   C4B31500   3.569  11.514  13.562
 2687DOPC   NC331501  14.199   4.444  14.612
 2687DOPC   PO431502  14.039   4.054  14.522
 2687DOPC   GL131503  14.109   3.994  14.112
 2687DOPC   GL231504  13.859   3.964  14.032
 2687DOPC   C1A31505  14.229   4.004  13.642
 2687DOPC   D2A31506  14.389   4.134  13.352
 2687DOPC   C3A31507  14.399   3.944  12.982
 2687DOPC   C4A31508  14.329   3.654  12.802
 2687DOPC   C1B31509  13.729   3.984  13.582
 2687DOPC   D2B31510  13.499   3.794  13.282
 2687DOPC   C3B31511  13.229   4.084  12.942
 2687DOPC   C4B31512  13.299   4.394  12.632
 2688DOPC   NC331513   6.199  18.684  11.652
 2688DOPC   PO431514   5.739  18.744  11.732
 2688DOPC   GL131515   5.599  18.944  12.052
 2688DOPC   GL231516   5.429  19.154  12.042
 2688DOPC   C1A31517   5.729  18.964  12.462
 2688DOPC   D2A31518   5.619  19.034  12.902
 2688DOPC   C3A31519   5.749  18.724  13.082
 2688DOPC   C4A31520   6.079  18.594  13.372
 2688DOPC   C1B31521   5.219  19.154  12.412
 2688DOPC   D2B31522   5.149  18.994  12.802
 2688DOPC   C3B31523   4.889  19.284  13.112
 2688DOPC   C4B31524   4.909  19.394  13.622
 2689DOPC   NC331525   1.979  18.514  15.732
 2689DOPC   PO431526   1.669  18.884  15.672
 2689DOPC   GL131527   1.649  19.094  15.242
 2689DOPC   GL231528   1.939  19.244  15.082
 2689DOPC   C1A31529   1.719  18.944  14.792
 2689DOPC   D2A31530   1.389  18.804  14.482
 2689DOPC   C3A31531   1.209  18.794  14.082
 2689DOPC   C4A31532   1.179  18.304  13.722
 2689DOPC   C1B31533   1.869  19.454  14.772
 2689DOPC   D2B31534   2.039  19.884  14.552
 2689DOPC   C3B31535   2.219  19.624  14.222
 2689DOPC   C4B31536   2.299  19.334  14.122
 2690DOPC   NC331537  21.929   7.554  15.542
 2690DOPC   PO431538  21.739   7.984  15.622
 2690DOPC   GL131539  21.569   7.814  15.162
 2690DOPC   GL231540  21.239   7.974  15.002
 2690DOPC   C1A31541  21.829   7.714  14.782
 2690DOPC   D2A31542  21.979   7.734  14.402
 2690DOPC   C3A31543  21.949   7.974  14.052
 2690DOPC   C4A31544  21.679   7.744  13.742
 2690DOPC   C1B31545  21.089   7.684  14.702
 2690DOPC   D2B31546  21.069   7.164  14.662
 2690DOPC   C3B31547  20.699   7.024  14.512
 2690DOPC   C4B31548  20.329   7.134  14.562
 2691DOPC   NC331549  23.909  13.744  11.922
 2691DOPC   PO431550  23.589  13.954  12.052
 2691DOPC   GL131551  23.799  13.734  12.392
 2691DOPC   GL231552  23.989  13.984  12.572
 2691DOPC   C1A31553  23.679  13.464  12.672
 2691DOPC   D2A31554  23.579  13.124  12.942
 2691DOPC   C3A31555  23.439  13.114  13.352
 2691DOPC   C4A31556  23.189  13.064  13.752
 2691DOPC   C1B31557  23.809  13.964  13.002
 2691DOPC   D2B31558  23.689  14.224  13.302
 2691DOPC   C3B31559  23.699  14.374  13.752
 2691DOPC   C4B31560  23.889  14.544  14.062
 2692DOPC   NC331561  20.379   9.394  15.602
 2692DOPC   PO431562  20.539   8.924  15.592
 2692DOPC   GL131563  20.389   9.104  15.142
 2692DOPC   GL231564  20.479   9.394  14.922
 2692DOPC   C1A31565  20.149   9.014  14.792
 2692DOPC   D2A31566  20.309   9.024  14.352
 2692DOPC   C3A31567  20.629   9.374  14.182
 2692DOPC   C4A31568  20.929   9.614  14.322
 2692DOPC   C1B31569  20.769   9.104  14.582
 2692DOPC   D2B31570  20.709   8.864  14.112
 2692DOPC   C3B31571  20.699   9.104  13.752
 2692DOPC   C4B31572  20.489   8.994  13.402
 2693DOPC   NC331573   9.549   6.704  14.722
 2693DOPC   PO431574   9.249   6.874  14.442
 2693DOPC   GL131575   9.049   7.094  14.122
 2693DOPC   GL231576   9.309   7.414  14.052
 2693DOPC   C1A31577   8.769   7.254  13.812
 2693DOPC   D2A31578   8.709   7.134  13.342
 2693DOPC   C3A31579   9.019   7.164  13.032
 2693DOPC   C4A31580   9.369   6.954  13.072
 2693DOPC   C1B31581   9.229   7.334  13.582
 2693DOPC   D2B31582   9.519   7.444  13.292
 2693DOPC   C3B31583   9.329   7.574  12.952
 2693DOPC   C4B31584   9.069   7.784  12.762
 2694DOPC   NC331585   9.539  11.884  14.262
 2694DOPC   PO431586   9.889  12.224  14.192
 2694DOPC   GL131587   9.959  12.374  13.822
 2694DOPC   GL231588   9.759  12.604  13.832
 2694DOPC   C1A31589  10.339  12.594  13.672
 2694DOPC   D2A31590  10.779  12.574  13.742
 2694DOPC   C3A31591  11.049  12.764  13.372
 2694DOPC   C4A31592  11.089  12.514  12.942
 2694DOPC   C1B31593   9.269  12.624  13.772
 2694DOPC   D2B31594   8.959  12.634  13.512
 2694DOPC   C3B31595   8.569  12.564  13.592
 2694DOPC   C4B31596   8.449  12.224  13.922
 2695DOPC   NC331597   5.699   7.464  15.162
 2695DOPC   PO431598   5.659   7.924  15.092
 2695DOPC   GL131599   5.509   8.134  14.772
 2695DOPC   GL231600   5.539   8.444  14.912
 2695DOPC   C1A31601   5.029   8.174  14.572
 2695DOPC   D2A31602   4.699   8.484  14.332
 2695DOPC   C3A31603   4.919   8.614  14.012
 2695DOPC   C4A31604   5.029   8.624  13.612
 2695DOPC   C1B31605   5.709   8.494  14.482
 2695DOPC   D2B31606   5.909   8.764  14.262
 2695DOPC   C3B31607   5.559   8.754  14.012
 2695DOPC   C4B31608   5.539   8.564  13.652
 2696DOPC   NC331609   7.089  22.511  11.712
 2696DOPC   PO431610   7.099  22.161  11.782
 2696DOPC   GL131611   7.199  22.131  12.202
 2696DOPC   GL231612   6.909  21.921  12.232
 2696DOPC   C1A31613   6.969  22.391  12.482
 2696DOPC   D2A31614   6.939  22.431  12.942
 2696DOPC   C3A31615   6.699  22.751  13.092
 2696DOPC   C4A31616   6.469  22.841  13.342
 2696DOPC   C1B31617   6.889  21.851  12.662
 2696DOPC   D2B31618   6.879  21.851  13.162
 2696DOPC   C3B31619   6.619  21.961  13.502
 2696DOPC   C4B31620   6.419  22.321  13.432
 2697DOPC   NC331621  11.109  17.624  14.462
 2697DOPC   PO431622  11.429  17.684  14.192
 2697DOPC   GL131623  11.129  18.004  14.042
 2697DOPC   GL231624  11.009  18.264  13.942
 2697DOPC   C1A31625  10.959  17.984  13.582
 2697DOPC   D2A31626  10.909  17.814  13.162
 2697DOPC   C3A31627  10.909  17.914  12.762
 2697DOPC   C4A31628  10.819  17.904  12.292
 2697DOPC   C1B31629  11.209  18.414  13.602
 2697DOPC   D2B31630  11.459  18.484  13.232
 2697DOPC   C3B31631  11.409  18.244  12.792
 2697DOPC   C4B31632  11.219  18.194  12.432
 2698DOPC   NC331633  11.779   4.434  14.822
 2698DOPC   PO431634  11.489   4.354  14.352
 2698DOPC   GL131635  11.729   4.314  13.942
 2698DOPC   GL231636  11.919   4.534  13.802
 2698DOPC   C1A31637  11.789   4.224  13.472
 2698DOPC   D2A31638  12.019   4.004  13.252
 2698DOPC   C3A31639  12.109   4.214  12.852
 2698DOPC   C4A31640  12.079   4.284  12.522
 2698DOPC   C1B31641  12.049   4.644  13.412
 2698DOPC   D2B31642  12.189   4.744  13.042
 2698DOPC   C3B31643  11.969   4.774  12.632
 2698DOPC   C4B31644  11.589   4.564  12.412
 2699DOPC   NC331645  10.449   2.644  14.352
 2699DOPC   PO431646  10.799   2.464  14.492
 2699DOPC   GL131647  10.539   2.184  14.202
 2699DOPC   GL231648  10.759   2.044  14.032
 2699DOPC   C1A31649  10.389   2.274  13.742
 2699DOPC   D2A31650  10.499   2.364  13.282
 2699DOPC   C3A31651  10.899   2.204  13.042
 2699DOPC   C4A31652  11.259   1.884  13.162
 2699DOPC   C1B31653  10.889   2.194  13.602
 2699DOPC   D2B31654  11.219   2.514  13.492
 2699DOPC   C3B31655  11.419   2.364  13.072
 2699DOPC   C4B31656  11.279   2.124  12.662
 2700DOPC   NC331657  25.666  16.274  16.022
 2700DOPC   PO431658  25.339  16.534  15.912
 2700DOPC   GL131659  25.059  16.554  15.492
 2700DOPC   GL231660  24.789  16.744  15.442
 2700DOPC   C1A31661  25.059  16.894  15.062
 2700DOPC   D2A31662  25.379  16.924  14.672
 2700DOPC   C3A31663  25.269  16.864  14.212
 2700DOPC   C4A31664  25.509  16.764  13.902
 2700DOPC   C1B31665  24.579  17.084  15.172
 2700DOPC   D2B31666  24.539  17.134  14.822
 2700DOPC   C3B31667  24.889  17.004  14.592
 2700DOPC   C4B31668  24.859  17.154  14.102
 2701DOPC   NC331669   3.319  14.924   7.242
 2701DOPC   PO431670   2.969  15.134   7.382
 2701DOPC   GL131671   2.929  15.074   6.912
 2701DOPC   GL231672   2.709  14.874   6.752
 2701DOPC   C1A31673   3.239  15.074   6.622
 2701DOPC   D2A31674   3.439  15.164   6.202
 2701DOPC   C3A31675   3.629  15.564   6.132
 2701DOPC   C4A31676   3.709  15.954   6.332
 2701DOPC   C1B31677   2.559  14.724   6.362
 2701DOPC   D2B31678   2.509  14.334   6.252
 2701DOPC   C3B31679   2.189  14.414   5.952
 2701DOPC   C4B31680   1.809  14.334   5.732
 2702DOPC   NC331681  12.789  18.774  14.962
 2702DOPC   PO431682  12.959  19.214  14.932
 2702DOPC   GL131683  13.309  19.334  14.662
 2702DOPC   GL231684  13.069  19.324  14.432
 2702DOPC   C1A31685  13.519  19.664  14.362
 2702DOPC   D2A31686  13.829  19.924  14.182
 2702DOPC   C3A31687  14.169  20.154  14.292
 2702DOPC   C4A31688  14.389  20.384  14.512
 2702DOPC   C1B31689  13.109  19.414  14.032
 2702DOPC   D2B31690  12.869  19.514  13.692
 2702DOPC   C3B31691  12.909  19.844  13.332
 2702DOPC   C4B31692  12.699  20.224  13.382
 2703DOPC   NC331693  22.269   0.444  11.902
 2703DOPC   PO431694  22.189   0.634  12.292
 2703DOPC   GL131695  21.959   0.494  12.692
 2703DOPC   GL231696  21.629   0.624  12.652
 2703DOPC   C1A31697  21.989   0.184  13.072
 2703DOPC   D2A31698  22.159   0.044  13.462
 2703DOPC   C3A31699  21.809   0.014  13.842
 2703DOPC   C4A31700  21.759  -0.136  14.312
 2703DOPC   C1B31701  21.709   0.704  13.102
 2703DOPC   D2B31702  21.739   0.474  13.632
 2703DOPC   C3B31703  22.059   0.434  13.852
 2703DOPC   C4B31704  22.519   0.294  13.892
 2704DOPC   NC331705   1.109   4.464  15.362
 2704DOPC   PO431706   1.079   4.934  15.452
 2704DOPC   GL131707   0.779   4.944  15.132
 2704DOPC   GL231708   0.999   4.804  14.982
 2704DOPC   C1A31709   0.519   5.114  14.762
 2704DOPC   D2A31710   0.369   5.424  14.392
 2704DOPC   C3A31711  -0.069   5.474  14.312
 2704DOPC   C4A31712  -0.419   5.634  14.102
 2704DOPC   C1B31713   0.929   4.834  14.592
 2704DOPC   D2B31714   1.179   4.804  14.232
 2704DOPC   C3B31715   1.169   4.994  13.802
 2704DOPC   C4B31716   0.929   5.034  13.422
 2705DOPC   NC331717   1.179  23.511  16.172
 2705DOPC   PO431718   1.259  23.561  15.752
 2705DOPC   GL131719   1.209  23.541  15.282
 2705DOPC   GL231720   1.479  23.421  15.082
 2705DOPC   C1A31721   0.929  23.711  15.012
 2705DOPC   D2A31722   0.709  23.741  14.582
 2705DOPC   C3A31723   0.539  24.011  14.362
 2705DOPC   C4A31724   0.259  23.941  14.032
 2705DOPC   C1B31725   1.669  23.311  14.602
 2705DOPC   D2B31726   1.509  23.381  14.182
 2705DOPC   C3B31727   1.159  23.631  14.172
 2705DOPC   C4B31728   0.729  23.761  13.952
 2706DOPC   NC331729  21.979   9.294  11.152
 2706DOPC   PO431730  21.939   9.024  11.462
 2706DOPC   GL131731  21.859   9.044  11.862
 2706DOPC   GL231732  21.939   8.714  12.042
 2706DOPC   C1A31733  22.219   9.074  12.222
 2706DOPC   D2A31734  22.289   9.224  12.692
 2706DOPC   C3A31735  22.699   9.224  12.802
 2706DOPC   C4A31736  23.009   9.034  13.122
 2706DOPC   C1B31737  21.989   8.504  12.492
 2706DOPC   D2B31738  21.799   8.464  12.892
 2706DOPC   C3B31739  21.609   8.394  13.262
 2706DOPC   C4B31740  21.829   8.174  13.542
 2707DOPC   NC331741  23.929   8.574  15.672
 2707DOPC   PO431742  24.299   8.274  15.562
 2707DOPC   GL131743  24.279   8.244  15.042
 2707DOPC   GL231744  24.239   8.074  14.952
 2707DOPC   C1A31745  24.409   8.554  14.832
 2707DOPC   D2A31746  24.369   8.794  14.412
 2707DOPC   C3A31747  24.749   9.074  14.202
 2707DOPC   C4A31748  24.859   9.194  13.772
 2707DOPC   C1B31749  24.189   7.854  14.502
 2707DOPC   D2B31750  24.129   8.014  13.952
 2707DOPC   C3B31751  24.029   8.314  13.722
 2707DOPC   C4B31752  23.949   8.774  13.582
 2708DOPC   NC331753  15.569   1.614  15.292
 2708DOPC   PO431754  15.959   1.354  15.142
 2708DOPC   GL131755  16.189   1.134  14.932
 2708DOPC   GL231756  16.069   0.884  14.772
 2708DOPC   C1A31757  16.559   1.044  14.662
 2708DOPC   D2A31758  16.789   0.704  14.552
 2708DOPC   C3A31759  16.799   0.594  14.092
 2708DOPC   C4A31760  16.599   0.414  13.762
 2708DOPC   C1B31761  16.169   1.194  14.452
 2708DOPC   D2B31762  16.209   1.504  14.082
 2708DOPC   C3B31763  16.069   1.844  13.992
 2708DOPC   C4B31764  16.169   2.224  13.832
 2709DOPC   NC331765  19.409   1.624  11.402
 2709DOPC   PO431766  19.659   1.764  11.642
 2709DOPC   GL131767  19.429   1.624  12.052
 2709DOPC   GL231768  19.139   1.874  12.112
 2709DOPC   C1A31769  19.359   1.594  12.462
 2709DOPC   D2A31770  19.409   1.744  12.932
 2709DOPC   C3A31771  19.319   1.444  13.322
 2709DOPC   C4A31772  19.369   1.054  13.402
 2709DOPC   C1B31773  19.379   2.094  12.532
 2709DOPC   D2B31774  19.499   2.554  12.792
 2709DOPC   C3B31775  19.639   2.504  13.152
 2709DOPC   C4B31776  20.059   2.634  13.392
 2710DOPC   NC331777  23.379  23.821  16.102
 2710DOPC   PO431778  23.049  23.711  16.392
 2710DOPC   GL131779  22.859  23.871  16.032
 2710DOPC   GL231780  22.509  23.751  15.952
 2710DOPC   C1A31781  22.739  24.201  15.682
 2710DOPC   D2A31782  22.809  24.351  15.242
 2710DOPC   C3A31783  22.789  24.301  14.772
 2710DOPC   C4A31784  23.049  24.391  14.342
 2710DOPC   C1B31785  22.389  23.591  15.552
 2710DOPC   D2B31786  22.159  23.381  15.272
 2710DOPC   C3B31787  22.369  22.941  15.172
 2710DOPC   C4B31788  22.689  22.731  15.462
 2711DOPC   NC331789   0.899  16.644  12.222
 2711DOPC   PO431790   1.349  16.764  12.102
 2711DOPC   GL131791   1.349  16.794  12.532
 2711DOPC   GL231792   1.179  17.004  12.672
 2711DOPC   C1A31793   1.489  16.754  12.992
 2711DOPC   D2A31794   1.399  16.724  13.482
 2711DOPC   C3A31795   1.379  16.544  13.852
 2711DOPC   C4A31796   1.679  16.564  14.272
 2711DOPC   C1B31797   1.149  17.454  12.742
 2711DOPC   D2B31798   0.929  17.594  13.012
 2711DOPC   C3B31799   0.459  17.644  12.882
 2711DOPC   C4B31800   0.219  17.314  12.692
 2712DOPC   NC331801   0.389   5.674  15.082
 2712DOPC   PO431802   0.849   5.784  15.102
 2712DOPC   GL131803   0.809   5.554  14.742
 2712DOPC   GL231804   0.969   5.284  14.612
 2712DOPC   C1A31805   0.889   5.644  14.342
 2712DOPC   D2A31806   1.079   5.944  14.092
 2712DOPC   C3A31807   1.099   6.204  13.712
 2712DOPC   C4A31808   1.059   5.924  13.392
 2712DOPC   C1B31809   0.779   5.214  14.102
 2712DOPC   D2B31810   0.589   5.094  13.782
 2712DOPC   C3B31811   0.229   5.384  13.902
 2712DOPC   C4B31812   0.011   5.734  13.832
 2713DOPC   NC331813  20.649   0.524  12.372
 2713DOPC   PO431814  20.649   0.084  12.512
 2713DOPC   GL131815  20.879   0.164  12.762
 2713DOPC   GL231816  20.759   0.464  12.912
 2713DOPC   C1A31817  21.139  -0.096  12.972
 2713DOPC   D2A31818  21.249  -0.386  13.152
 2713DOPC   C3A31819  21.449  -0.786  13.282
 2713DOPC   C4A31820  21.759  -0.986  13.542
 2713DOPC   C1B31821  20.719   0.654  13.312
 2713DOPC   D2B31822  20.719   0.524  13.702
 2713DOPC   C3B31823  20.529   0.214  14.092
 2713DOPC   C4B31824  20.599  -0.146  14.302
 2714DOPC   NC331825  10.559  23.471  15.352
 2714DOPC   PO431826  10.239  23.291  15.602
 2714DOPC   GL131827  10.119  23.161  15.142
 2714DOPC   GL231828   9.889  22.961  14.862
 2714DOPC   C1A31829  10.159  23.361  14.692
 2714DOPC   D2A31830  10.299  23.411  14.322
 2714DOPC   C3A31831  10.259  23.021  14.052
 2714DOPC   C4A31832  10.299  22.941  13.732
 2714DOPC   C1B31833  10.339  22.871  14.692
 2714DOPC   D2B31834  10.659  23.031  14.432
 2714DOPC   C3B31835  11.019  22.811  14.572
 2714DOPC   C4B31836  11.359  22.531  14.732
 2715DOPC   NC331837   9.049  13.244  11.072
 2715DOPC   PO431838   9.099  12.934  10.762
 2715DOPC   GL131839   8.999  12.724  11.112
 2715DOPC   GL231840   9.119  12.954  11.452
 2715DOPC   C1A31841   8.809  12.654  11.552
 2715DOPC   D2A31842   8.629  12.354  11.762
 2715DOPC   C3A31843   8.579  12.504  12.202
 2715DOPC   C4A31844   8.599  12.834  12.452
 2715DOPC   C1B31845   9.159  12.964  11.922
 2715DOPC   D2B31846   9.089  13.004  12.312
 2715DOPC   C3B31847   9.099  12.814  12.672
 2715DOPC   C4B31848   9.159  12.564  13.032
 2716DOPC   NC331849  11.919  21.461  14.962
 2716DOPC   PO431850  11.569  21.194  14.932
 2716DOPC   GL131851  11.719  21.264  14.532
 2716DOPC   GL231852  11.549  20.974  14.302
 2716DOPC   C1A31853  11.979  21.354  14.242
 2716DOPC   D2A31854  12.169  21.631  13.922
 2716DOPC   C3A31855  11.819  21.601  13.582
 2716DOPC   C4A31856  11.819  21.284  13.202
 2716DOPC   C1B31857  11.609  21.204  13.902
 2716DOPC   D2B31858  11.409  21.284  13.522
 2716DOPC   C3B31859  11.339  21.571  13.202
 2716DOPC   C4B31860  11.629  21.711  12.912
 2717DOPC   NC331861  12.859  13.404  14.262
 2717DOPC   PO431862  12.379  13.474  14.092
 2717DOPC   GL131863  12.719  13.634  13.782
 2717DOPC   GL231864  12.839  13.974  13.592
 2717DOPC   C1A31865  12.729  13.574  13.332
 2717DOPC   D2A31866  12.669  13.644  12.922
 2717DOPC   C3A31867  12.249  13.464  12.712
 2717DOPC   C4A31868  11.839  13.194  12.812
 2717DOPC   C1B31869  12.669  14.084  13.182
 2717DOPC   D2B31870  12.779  14.174  12.732
 2717DOPC   C3B31871  13.089  13.764  12.602
 2717DOPC   C4B31872  13.389  13.514  12.252
 2718DOPC   NC331873  20.709   1.174  16.362
 2718DOPC   PO431874  20.939   0.974  16.012
 2718DOPC   GL131875  21.059   0.994  15.592
 2718DOPC   GL231876  20.719   1.144  15.442
 2718DOPC   C1A31877  21.339   0.814  15.232
 2718DOPC   D2A31878  21.539   0.914  14.862
 2718DOPC   C3A31879  21.549   0.694  14.472
 2718DOPC   C4A31880  21.519   0.334  14.172
 2718DOPC   C1B31881  20.869   0.834  15.222
 2718DOPC   D2B31882  20.679   0.554  14.902
 2718DOPC   C3B31883  20.739   0.384  14.532
 2718DOPC   C4B31884  21.019   0.344  14.172
 2719DOPC   NC331885   1.539   9.744  11.892
 2719DOPC   PO431886   2.029   9.884  11.932
 2719DOPC   GL131887   2.179  10.314  12.002
 2719DOPC   GL231888   2.429  10.304  11.972
 2719DOPC   C1A31889   2.309  10.654  12.402
 2719DOPC   D2A31890   2.329  10.804  12.872
 2719DOPC   C3A31891   2.719  10.914  12.982
 2719DOPC   C4A31892   3.189  10.824  13.042
 2719DOPC   C1B31893   2.209  10.114  12.452
 2719DOPC   D2B31894   2.099  10.354  12.842
 2719DOPC   C3B31895   1.839  10.804  12.812
 2719DOPC   C4B31896   1.449  10.944  12.902
 2720DOPC   NC331897  17.539  14.484  10.802
 2720DOPC   PO431898  17.099  14.594  10.962
 2720DOPC   GL131899  16.819  14.364  11.232
 2720DOPC   GL231900  16.649  14.514  11.462
 2720DOPC   C1A31901  16.419  14.114  11.332
 2720DOPC   D2A31902  16.119  13.924  11.542
 2720DOPC   C3A31903  15.969  14.014  11.942
 2720DOPC   C4A31904  15.869  14.054  12.442
 2720DOPC   C1B31905  16.539  14.424  11.792
 2720DOPC   D2B31906  16.479  14.634  12.162
 2720DOPC   C3B31907  16.259  14.284  12.382
 2720DOPC   C4B31908  16.259  14.164  12.892
 2721DOPC   NC331909   0.169   3.454  15.552
 2721DOPC   PO431910   0.499   3.594  15.472
 2721DOPC   GL131911   0.699   3.774  15.172
 2721DOPC   GL231912   0.959   3.564  14.952
 2721DOPC   C1A31913   0.599   3.904  14.712
 2721DOPC   D2A31914   0.449   3.774  14.402
 2721DOPC   C3A31915   0.669   3.724  14.042
 2721DOPC   C4A31916   0.829   3.514  13.592
 2721DOPC   C1B31917   0.779   3.404  14.552
 2721DOPC   D2B31918   0.849   3.264  14.022
 2721DOPC   C3B31919   0.519   3.144  13.682
 2721DOPC   C4B31920   0.479   3.094  13.232
 2722DOPC   NC331921  24.699  11.714  11.692
 2722DOPC   PO431922  24.919  12.074  11.802
 2722DOPC   GL131923  24.959  12.154  12.192
 2722DOPC   GL231924  25.259  12.264  12.412
 2722DOPC   C1A31925  24.919  11.884  12.582
 2722DOPC   D2A31926  24.839  11.754  12.962
 2722DOPC   C3A31927  24.929  11.514  13.242
 2722DOPC   C4A31928  24.799  11.074  13.052
 2722DOPC   C1B31929  25.189  12.224  12.752
 2722DOPC   D2B31930  25.339  12.594  12.992
 2722DOPC   C3B31931  25.549  12.454  13.322
 2722DOPC   C4B31932  25.489  12.114  13.632
 2723DOPC   NC331933   2.059  12.464  15.062
 2723DOPC   PO431934   1.959  12.074  15.012
 2723DOPC   GL131935   1.969  11.794  14.692
 2723DOPC   GL231936   1.939  11.434  14.602
 2723DOPC   C1A31937   1.759  11.584  14.162
 2723DOPC   D2A31938   1.549  11.734  13.832
 2723DOPC   C3A31939   1.739  11.654  13.412
 2723DOPC   C4A31940   1.959  11.244  13.282
 2723DOPC   C1B31941   2.069  11.264  14.282
 2723DOPC   D2B31942   2.139  10.794  14.142
 2723DOPC   C3B31943   2.229  10.604  13.692
 2723DOPC   C4B31944   2.029  10.274  13.452
 2724DOPC   NC331945  12.999   2.574   8.142
 2724DOPC   PO431946  13.229   2.954   7.852
 2724DOPC   GL131947  13.109   3.174   7.572
 2724DOPC   GL231948  13.309   3.394   7.432
 2724DOPC   C1A31949  13.109   2.934   7.172
 2724DOPC   D2A31950  12.949   2.634   6.932
 2724DOPC   C3A31951  13.069   2.374   6.562
 2724DOPC   C4A31952  13.319   2.134   6.322
 2724DOPC   C1B31953  13.169   3.444   6.972
 2724DOPC   D2B31954  13.109   3.184   6.642
 2724DOPC   C3B31955  13.329   2.804   6.672
 2724DOPC   C4B31956  13.569   2.434   6.642
 2725DOPC   NC331957  15.309   0.744  15.732
 2725DOPC   PO431958  14.939   0.524  15.472
 2725DOPC   GL131959  14.889   0.324  15.092
 2725DOPC   GL231960  15.169   0.084  15.112
 2725DOPC   C1A31961  14.979   0.184  14.692
 2725DOPC   D2A31962  14.619  -0.066  14.622
 2725DOPC   C3A31963  14.679  -0.376  14.272
 2725DOPC   C4A31964  15.099  -0.466  14.272
 2725DOPC   C1B31965  15.459  -0.096  14.822
 2725DOPC   D2B31966  15.719  -0.086  14.562
 2725DOPC   C3B31967  15.599  -0.236  14.142
 2725DOPC   C4B31968  15.479  -0.276  13.742
 2726DOPC   NC331969  15.129   9.114  14.432
 2726DOPC   PO431970  15.299   8.784  14.762
 2726DOPC   GL131971  15.269   8.634  14.322
 2726DOPC   GL231972  15.249   8.804  14.062
 2726DOPC   C1A31973  15.249   8.294  14.002
 2726DOPC   D2A31974  15.069   8.134  13.642
 2726DOPC   C3A31975  14.679   8.234  13.452
 2726DOPC   C4A31976  14.319   8.164  13.142
 2726DOPC   C1B31977  14.829   8.504  13.892
 2726DOPC   D2B31978  14.449   8.494  13.822
 2726DOPC   C3B31979  14.289   8.184  13.832
 2726DOPC   C4B31980  14.259   7.904  13.542
 2727DOPC   NC331981  14.189   6.634  14.822
 2727DOPC   PO431982  13.849   6.474  14.512
 2727DOPC   GL131983  14.099   6.524  14.112
 2727DOPC   GL231984  13.929   6.524  13.812
 2727DOPC   C1A31985  14.449   6.454  13.762
 2727DOPC   D2A31986  14.499   6.404  13.312
 2727DOPC   C3A31987  14.939   6.524  12.982
 2727DOPC   C4A31988  15.249   6.574  12.662
 2727DOPC   C1B31989  14.059   6.224  13.522
 2727DOPC   D2B31990  14.069   6.164  13.092
 2727DOPC   C3B31991  13.789   6.384  12.822
 2727DOPC   C4B31992  13.489   6.684  12.872
 2728DOPC   NC331993  23.989  11.254  15.812
 2728DOPC   PO431994  24.089  10.994  15.542
 2728DOPC   GL131995  24.089  11.124  15.172
 2728DOPC   GL231996  23.749  11.304  15.152
 2728DOPC   C1A31997  24.299  10.934  14.822
 2728DOPC   D2A31998  24.509  10.864  14.432
 2728DOPC   C3A31999  24.989  10.774  14.352
 2728DOPC   C4A32000  25.069  10.904  13.972
 2728DOPC   C1B32001  23.479  11.404  14.722
 2728DOPC   D2B32002  23.279  11.214  14.342
 2728DOPC   C3B32003  23.299  10.774  13.992
 2728DOPC   C4B32004  23.279  10.324  13.872
 2729DOPC   NC332005  19.099  17.114  16.062
 2729DOPC   PO432006  19.289  16.734  15.802
 2729DOPC   GL132007  19.409  17.174  15.602
 2729DOPC   GL232008  19.209  17.424  15.482
 2729DOPC   C1A32009  19.529  17.154  15.142
 2729DOPC   D2A32010  19.629  16.984  14.752
 2729DOPC   C3A32011  19.689  17.194  14.382
 2729DOPC   C4A32012  19.879  17.434  14.072
 2729DOPC   C1B32013  19.609  17.614  15.292
 2729DOPC   D2B32014  19.969  17.844  15.122
 2729DOPC   C3B32015  20.189  17.774  14.712
 2729DOPC   C4B32016  20.249  17.444  14.462
 2730DOPC   NC332017   8.289   4.184  10.192
 2730DOPC   PO432018   7.969   4.264  10.592
 2730DOPC   GL132019   7.739   4.004  10.892
 2730DOPC   GL232020   7.549   4.174  10.942
 2730DOPC   C1A32021   7.739   3.714  11.312
 2730DOPC   D2A32022   7.639   3.414  11.642
 2730DOPC   C3A32023   7.869   2.984  11.742
 2730DOPC   C4A32024   8.089   2.754  11.452
 2730DOPC   C1B32025   7.619   4.324  11.412
 2730DOPC   D2B32026   7.499   4.374  11.832
 2730DOPC   C3B32027   7.149   4.434  11.932
 2730DOPC   C4B32028   6.769   4.644  12.092
 2731DOPC   NC332029  18.519  18.654  11.732
 2731DOPC   PO432030  18.429  18.874  12.032
 2731DOPC   GL132031  18.299  18.724  12.392
 2731DOPC   GL232032  17.999  18.674  12.192
 2731DOPC   C1A32033  18.459  18.944  12.682
 2731DOPC   D2A32034  18.339  19.244  12.972
 2731DOPC   C3A32035  18.459  19.054  13.402
 2731DOPC   C4A32036  18.309  18.854  13.762
 2731DOPC   C1B32037  17.939  18.524  12.632
 2731DOPC   D2B32038  17.789  18.484  13.092
 2731DOPC   C3B32039  17.989  18.084  13.312
 2731DOPC   C4B32040  18.349  17.864  13.602
 2732DOPC   NC332041  16.739  12.104  14.472
 2732DOPC   PO432042  17.119  12.024  14.622
 2732DOPC   GL132043  17.229  11.874  14.182
 2732DOPC   GL232044  16.919  11.904  14.042
 2732DOPC   C1A32045  17.419  11.874  13.732
 2732DOPC   D2A32046  17.669  11.704  13.572
 2732DOPC   C3A32047  17.689  11.784  13.052
 2732DOPC   C4A32048  17.599  11.944  12.712
 2732DOPC   C1B32049  16.989  11.574  13.742
 2732DOPC   D2B32050  16.769  11.444  13.432
 2732DOPC   C3B32051  16.899  11.244  12.992
 2732DOPC   C4B32052  16.739  11.064  12.542
 2733DOPC   NC332053   0.409  17.984  16.202
 2733DOPC   PO432054   0.419  18.304  15.892
 2733DOPC   GL132055   0.569  18.234  15.442
 2733DOPC   GL232056   0.759  18.494  15.422
 2733DOPC   C1A32057   0.469  18.154  15.012
 2733DOPC   D2A32058   0.279  18.024  14.582
 2733DOPC   C3A32059   0.559  18.074  14.192
 2733DOPC   C4A32060   0.949  17.974  14.042
 2733DOPC   C1B32061   0.749  18.584  15.012
 2733DOPC   D2B32062   0.419  18.574  14.742
 2733DOPC   C3B32063   0.379  18.814  14.322
 2733DOPC   C4B32064   0.049  19.004  14.012
 2734DOPC   NC332065  23.219   0.934  16.102
 2734DOPC   PO432066  23.119   1.404  15.852
 2734DOPC   GL132067  23.109   1.444  15.342
 2734DOPC   GL232068  23.409   1.364  15.252
 2734DOPC   C1A32069  23.099   1.274  14.892
 2734DOPC   D2A32070  23.469   1.234  14.682
 2734DOPC   C3A32071  23.399   1.114  14.272
 2734DOPC   C4A32072  23.349   0.994  13.852
 2734DOPC   C1B32073  23.699   1.504  15.092
 2734DOPC   D2B32074  23.949   1.794  14.862
 2734DOPC   C3B32075  23.959   1.954  14.462
 2734DOPC   C4B32076  23.779   2.044  14.122
 2735DOPC   NC332077  20.249   1.064  11.872
 2735DOPC   PO432078  20.579   0.954  12.192
 2735DOPC   GL132079  20.509   1.234  12.482
 2735DOPC   GL232080  20.689   1.394  12.542
 2735DOPC   C1A32081  20.249   1.274  12.802
 2735DOPC   D2A32082  19.879   1.574  13.002
 2735DOPC   C3A32083  19.789   1.544  13.472
 2735DOPC   C4A32084  19.469   1.624  13.802
 2735DOPC   C1B32085  20.669   1.474  13.002
 2735DOPC   D2B32086  20.929   1.134  13.272
 2735DOPC   C3B32087  21.159   1.244  13.662
 2735DOPC   C4B32088  21.049   1.234  14.092
 2736DOPC   NC332089   4.669  18.654  15.312
 2736DOPC   PO432090   4.499  18.294  15.212
 2736DOPC   GL132091   4.429  18.624  14.862
 2736DOPC   GL232092   4.619  18.994  14.912
 2736DOPC   C1A32093   4.339  18.844  14.532
 2736DOPC   D2A32094   4.389  19.174  14.202
 2736DOPC   C3A32095   3.989  19.224  13.982
 2736DOPC   C4A32096   3.649  19.404  13.752
 2736DOPC   C1B32097   4.759  19.254  14.552
 2736DOPC   D2B32098   4.799  19.474  14.132
 2736DOPC   C3B32099   4.339  19.574  13.872
 2736DOPC   C4B32100   4.009  19.714  13.542
 2737DOPC   NC332101   8.979  20.944  11.202
 2737DOPC   PO432102   8.659  20.774  11.502
 2737DOPC   GL132103   8.519  21.074  11.762
 2737DOPC   GL232104   8.219  21.154  11.762
 2737DOPC   C1A32105   8.449  21.254  12.232
 2737DOPC   D2A32106   8.129  21.441  12.482
 2737DOPC   C3A32107   7.669  21.214  12.332
 2737DOPC   C4A32108   7.239  21.054  12.442
 2737DOPC   C1B32109   8.129  20.884  12.032
 2737DOPC   D2B32110   8.099  20.944  12.542
 2737DOPC   C3B32111   8.119  20.664  12.862
 2737DOPC   C4B32112   8.179  20.534  13.322
 2738DOPC   NC332113   2.599   5.174  11.232
 2738DOPC   PO432114   2.429   5.234  11.552
 2738DOPC   GL132115   2.299   5.404  11.912
 2738DOPC   GL232116   2.259   5.694  12.042
 2738DOPC   C1A32117   2.049   5.264  12.332
 2738DOPC   D2A32118   2.119   4.904  12.692
 2738DOPC   C3A32119   2.399   4.594  12.722
 2738DOPC   C4A32120   2.739   4.364  12.812
 2738DOPC   C1B32121   2.299   5.724  12.412
 2738DOPC   D2B32122   2.489   5.784  12.792
 2738DOPC   C3B32123   2.809   5.474  12.912
 2738DOPC   C4B32124   3.229   5.354  12.742
 2739DOPC   NC332125  24.349  14.304  15.502
 2739DOPC   PO432126  24.259  14.754  15.722
 2739DOPC   GL132127  24.549  14.754  15.362
 2739DOPC   GL232128  24.849  14.814  15.392
 2739DOPC   C1A32129  24.739  15.014  14.982
 2739DOPC   D2A32130  25.079  15.004  14.612
 2739DOPC   C3A32131  25.159  15.224  14.282
 2739DOPC   C4A32132  25.459  15.624  14.392
 2739DOPC   C1B32133  25.129  14.684  15.152
 2739DOPC   D2B32134  25.109  14.604  14.782
 2739DOPC   C3B32135  24.949  14.444  14.452
 2739DOPC   C4B32136  24.789  14.384  14.002
 2740DOPC   NC332137  23.919  12.054  11.542
 2740DOPC   PO432138  24.119  11.714  11.752
 2740DOPC   GL132139  24.029  11.814  12.252
 2740DOPC   GL232140  24.119  12.054  12.322
 2740DOPC   C1A32141  23.819  11.944  12.682
 2740DOPC   D2A32142  23.599  11.714  12.992
 2740DOPC   C3A32143  23.459  11.844  13.412
 2740DOPC   C4A32144  23.299  12.164  13.642
 2740DOPC   C1B32145  24.059  12.494  12.282
 2740DOPC   D2B32146  24.229  12.754  12.522
 2740DOPC   C3B32147  24.099  13.234  12.622
 2740DOPC   C4B32148  24.139  13.584  12.922
 2741DOPC   NC332149  21.689   7.024  11.272
 2741DOPC   PO432150  21.439   6.584  11.392
 2741DOPC   GL132151  21.559   6.334  11.712
 2741DOPC   GL232152  21.439   6.584  11.992
 2741DOPC   C1A32153  21.279   6.144  12.042
 2741DOPC   D2A32154  20.899   5.974  12.162
 2741DOPC   C3A32155  20.869   5.634  12.512
 2741DOPC   C4A32156  20.699   5.164  12.582
 2741DOPC   C1B32157  21.139   6.674  12.332
 2741DOPC   D2B32158  21.099   7.184  12.502
 2741DOPC   C3B32159  20.969   7.234  12.962
 2741DOPC   C4B32160  20.909   7.314  13.322
 2742DOPC   NC332161  22.699  20.934  16.012
 2742DOPC   PO432162  23.059  21.024  15.822
 2742DOPC   GL132163  22.959  21.154  15.372
 2742DOPC   GL232164  23.019  20.944  15.052
 2742DOPC   C1A32165  22.589  21.421  15.172
 2742DOPC   D2A32166  22.369  21.491  14.752
 2742DOPC   C3A32167  22.199  21.801  14.552
 2742DOPC   C4A32168  22.389  22.201  14.442
 2742DOPC   C1B32169  23.229  21.184  14.762
 2742DOPC   D2B32170  23.309  21.681  14.642
 2742DOPC   C3B32171  23.329  21.911  14.292
 2742DOPC   C4B32172  23.469  22.001  13.902
 2743DOPC   NC332173   2.949  25.201  11.552
 2743DOPC   PO432174   3.279  25.161  11.632
 2743DOPC   GL132175   3.269  24.901  12.012
 2743DOPC   GL232176   3.009  25.181  12.062
 2743DOPC   C1A32177   3.239  24.511  12.352
 2743DOPC   D2A32178   3.239  24.011  12.292
 2743DOPC   C3A32179   3.119  23.801  12.752
 2743DOPC   C4A32180   3.119  24.001  13.262
 2743DOPC   C1B32181   3.239  25.221  12.422
 2743DOPC   D2B32182   3.149  25.381  12.832
 2743DOPC   C3B32183   3.589  25.481  13.072
 2743DOPC   C4B32184   3.959  25.211  13.052
 2744DOPC   NC332185  12.339   7.034  10.182
 2744DOPC   PO432186  12.169   7.244  10.582
 2744DOPC   GL132187  12.039   7.214  11.002
 2744DOPC   GL232188  12.199   7.544  11.062
 2744DOPC   C1A32189  11.899   7.044  11.402
 2744DOPC   D2A32190  11.659   6.764  11.722
 2744DOPC   C3A32191  11.649   6.344  11.932
 2744DOPC   C4A32192  12.089   6.284  12.072
 2744DOPC   C1B32193  12.179   7.504  11.442
 2744DOPC   D2B32194  12.109   7.304  11.792
 2744DOPC   C3B32195  11.959   7.554  12.062
 2744DOPC   C4B32196  11.809   7.624  12.542
 2745DOPC   NC332197   7.989  22.151  15.342
 2745DOPC   PO432198   7.869  21.771  14.952
 2745DOPC   GL132199   7.739  22.091  14.692
 2745DOPC   GL232200   7.949  22.221  14.392
 2745DOPC   C1A32201   7.409  21.911  14.352
 2745DOPC   D2A32202   7.009  21.841  14.172
 2745DOPC   C3A32203   7.039  21.551  13.932
 2745DOPC   C4A32204   7.109  21.481  13.472
 2745DOPC   C1B32205   7.969  21.921  14.162
 2745DOPC   D2B32206   7.919  21.811  13.802
 2745DOPC   C3B32207   7.789  22.091  13.512
 2745DOPC   C4B32208   7.829  21.911  13.132
 2746DOPC   NC332209   5.589  17.884  15.022
 2746DOPC   PO432210   5.949  17.704  14.842
 2746DOPC   GL132211   5.719  17.774  14.482
 2746DOPC   GL232212   5.919  18.084  14.322
 2746DOPC   C1A32213   5.849  17.674  13.962
 2746DOPC   D2A32214   5.899  17.914  13.692
 2746DOPC   C3A32215   6.199  18.194  13.642
 2746DOPC   C4A32216   6.589  18.324  13.482
 2746DOPC   C1B32217   5.789  18.294  13.982
 2746DOPC   D2B32218   5.679  18.394  13.552
 2746DOPC   C3B32219   5.919  18.184  13.142
 2746DOPC   C4B32220   6.249  17.944  12.832
 2747DOPC   NC332221  24.139  22.511  11.972
 2747DOPC   PO432222  24.429  22.901  12.012
 2747DOPC   GL132223  24.599  22.981  12.372
 2747DOPC   GL232224  24.379  22.941  12.692
 2747DOPC   C1A32225  24.889  23.011  12.702
 2747DOPC   D2A32226  25.059  23.381  12.852
 2747DOPC   C3A32227  24.719  23.731  12.922
 2747DOPC   C4A32228  24.479  23.851  13.182
 2747DOPC   C1B32229  24.499  23.291  12.902
 2747DOPC   D2B32230  24.399  23.381  13.412
 2747DOPC   C3B32231  24.049  23.281  13.702
 2747DOPC   C4B32232  23.669  23.041  13.612
 2748DOPC   NC332233  11.279  24.411  15.372
 2748DOPC   PO432234  11.749  24.551  15.382
 2748DOPC   GL132235  11.659  24.501  15.002
 2748DOPC   GL232236  11.849  24.251  15.022
 2748DOPC   C1A32237  11.969  24.591  14.702
 2748DOPC   D2A32238  11.749  24.611  14.342
 2748DOPC   C3A32239  11.819  24.951  14.002
 2748DOPC   C4A32240  11.579  25.251  13.752
 2748DOPC   C1B32241  11.739  24.131  14.572
 2748DOPC   D2B32242  11.849  24.131  14.132
 2748DOPC   C3B32243  11.569  23.931  13.832
 2748DOPC   C4B32244  11.199  24.051  13.682
 2749DOPC   NC332245   6.339  -0.096  15.282
 2749DOPC   PO432246   6.069   0.214  15.442
 2749DOPC   GL132247   5.899   0.054  15.032
 2749DOPC   GL232248   6.149   0.164  14.802
 2749DOPC   C1A32249   5.919  -0.126  14.572
 2749DOPC   D2A32250   5.779  -0.156  14.152
 2749DOPC   C3A32251   5.459   0.024  13.832
 2749DOPC   C4A32252   5.419   0.154  13.372
 2749DOPC   C1B32253   5.929   0.374  14.412
 2749DOPC   D2B32254   5.769   0.324  14.122
 2749DOPC   C3B32255   5.879   0.234  13.722
 2749DOPC   C4B32256   5.769   0.534  13.312
 2750DOPC   NC332257   0.779  11.164  15.812
 2750DOPC   PO432258   0.989  11.234  15.422
 2750DOPC   GL132259   1.079  11.424  14.972
 2750DOPC   GL232260   0.929  11.614  15.102
 2750DOPC   C1A32261   0.939  11.314  14.492
 2750DOPC   D2A32262   1.019  11.214  14.042
 2750DOPC   C3A32263   1.299  10.814  13.882
 2750DOPC   C4A32264   1.739  10.604  13.822
 2750DOPC   C1B32265   0.579  11.384  14.812
 2750DOPC   D2B32266   0.139  11.134  14.932
 2750DOPC   C3B32267  -0.209  11.054  14.672
 2750DOPC   C4B32268  -0.449  11.274  14.282
 2751DOPC   NC332269  25.826  15.964  15.542
 2751DOPC   PO432270  25.439  16.144  15.622
 2751DOPC   GL132271  25.479  16.204  15.242
 2751DOPC   GL232272  25.429  16.474  15.012
 2751DOPC   C1A32273  25.339  16.014  14.802
 2751DOPC   D2A32274  25.379  16.104  14.342
 2751DOPC   C3A32275  25.666  16.394  14.252
 2751DOPC   C4A32276  25.956  16.584  13.972
 2751DOPC   C1B32277  25.149  16.494  14.672
 2751DOPC   D2B32278  24.819  16.184  14.452
 2751DOPC   C3B32279  24.469  16.244  14.552
 2751DOPC   C4B32280  24.609  16.494  14.942
 2752DOPC   NC332281   6.869   0.824  15.352
 2752DOPC   PO432282   6.369   0.774  15.392
 2752DOPC   GL132283   6.469   0.494  15.072
 2752DOPC   GL232284   6.229   0.644  14.932
 2752DOPC   C1A32285   6.599   0.304  14.672
 2752DOPC   D2A32286   6.399   0.354  14.282
 2752DOPC   C3A32287   6.539   0.124  13.952
 2752DOPC   C4A32288   6.719  -0.216  13.582
 2752DOPC   C1B32289   6.329   0.814  14.492
 2752DOPC   D2B32290   6.379   1.064  14.092
 2752DOPC   C3B32291   6.599   0.954  13.692
 2752DOPC   C4B32292   6.559   1.194  13.372
 2753DOPC   NC332293  22.499   5.344  15.342
 2753DOPC   PO432294  22.039   5.404  15.202
 2753DOPC   GL132295  22.429   5.544  14.892
 2753DOPC   GL232296  22.689   5.744  14.952
 2753DOPC   C1A32297  22.799   5.424  14.642
 2753DOPC   D2A32298  22.929   5.294  14.232
 2753DOPC   C3A32299  22.649   5.574  14.122
 2753DOPC   C4A32300  22.609   5.794  13.742
 2753DOPC   C1B32301  22.899   5.924  14.662
 2753DOPC   D2B32302  22.929   5.974  14.112
 2753DOPC   C3B32303  23.119   5.544  13.872
 2753DOPC   C4B32304  23.099   5.134  13.732
 2754DOPC   NC332305  12.589   0.704  11.062
 2754DOPC   PO432306  12.699   0.444  10.732
 2754DOPC   GL132307  12.929   0.384  11.162
 2754DOPC   GL232308  12.849   0.054  11.462
 2754DOPC   C1A32309  13.149   0.424  11.612
 2754DOPC   D2A32310  13.479   0.694  11.832
 2754DOPC   C3A32311  13.459   1.024  11.682
 2754DOPC   C4A32312  13.209   1.324  11.592
 2754DOPC   C1B32313  12.769   0.084  11.872
 2754DOPC   D2B32314  12.439   0.254  12.202
 2754DOPC   C3B32315  12.279  -0.076  12.532
 2754DOPC   C4B32316  12.529  -0.236  12.852
 2755DOPC   NC332317  20.049  24.501  15.892
 2755DOPC   PO432318  20.369  24.791  15.762
 2755DOPC   GL132319  20.349  24.481  15.502
 2755DOPC   GL232320  20.429  24.701  15.242
 2755DOPC   C1A32321  20.139  24.301  15.152
 2755DOPC   D2A32322  20.059  24.581  14.732
 2755DOPC   C3A32323  20.219  24.401  14.322
 2755DOPC   C4A32324  20.369  23.991  14.242
 2755DOPC   C1B32325  20.049  24.851  15.162
 2755DOPC   D2B32326  19.799  25.251  15.112
 2755DOPC   C3B32327  19.399  25.231  14.942
 2755DOPC   C4B32328  19.269  25.501  14.692
 2756DOPC   NC332329  22.239   9.344  15.622
 2756DOPC   PO432330  22.229   9.814  15.632
 2756DOPC   GL132331  21.989   9.684  15.272
 2756DOPC   GL232332  21.809   9.374  15.272
 2756DOPC   C1A32333  21.899  10.094  14.912
 2756DOPC   D2A32334  21.949  10.324  14.542
 2756DOPC   C3A32335  21.839  10.744  14.372
 2756DOPC   C4A32336  21.489  10.984  14.192
 2756DOPC   C1B32337  21.589   9.154  14.872
 2756DOPC   D2B32338  21.299   9.004  14.552
 2756DOPC   C3B32339  21.119   9.164  14.102
 2756DOPC   C4B32340  21.269   9.124  13.702
 2757DOPC   NC332341  17.199   9.084  15.182
 2757DOPC   PO432342  17.489   8.704  14.992
 2757DOPC   GL132343  17.549   8.914  14.542
 2757DOPC   GL232344  17.749   9.194  14.362
 2757DOPC   C1A32345  17.449   8.844  14.082
 2757DOPC   D2A32346  17.479   8.874  13.662
 2757DOPC   C3A32347  17.049   8.864  13.392
 2757DOPC   C4A32348  16.669   8.654  13.342
 2757DOPC   C1B32349  17.889   9.294  14.072
 2757DOPC   D2B32350  18.059   9.484  13.732
 2757DOPC   C3B32351  18.189   9.884  13.732
 2757DOPC   C4B32352  17.799  10.184  13.722
 2758DOPC   NC332353   3.659  19.234  15.812
 2758DOPC   PO432354   3.859  18.884  15.772
 2758DOPC   GL132355   3.779  19.094  15.342
 2758DOPC   GL232356   3.449  19.034  15.242
 2758DOPC   C1A32357   3.969  19.024  14.892
 2758DOPC   D2A32358   3.939  19.134  14.532
 2758DOPC   C3A32359   3.589  19.374  14.402
 2758DOPC   C4A32360   3.309  19.464  14.092
 2758DOPC   C1B32361   3.529  19.194  14.832
 2758DOPC   D2B32362   3.749  19.664  14.832
 2758DOPC   C3B32363   3.509  20.014  14.802
 2758DOPC   C4B32364   3.089  20.354  14.722
 2759DOPC   NC332365  24.929  12.074  15.972
 2759DOPC   PO432366  24.629  11.974  15.622
 2759DOPC   GL132367  24.549  11.804  15.212
 2759DOPC   GL232368  24.759  11.794  14.972
 2759DOPC   C1A32369  24.179  11.674  15.062
 2759DOPC   D2A32370  23.949  11.444  14.712
 2759DOPC   C3A32371  23.819  11.024  14.682
 2759DOPC   C4A32372  23.849  10.574  14.802
 2759DOPC   C1B32373  24.389  11.834  14.602
 2759DOPC   D2B32374  24.189  11.714  14.222
 2759DOPC   C3B32375  24.349  11.824  13.822
 2759DOPC   C4B32376  24.559  11.854  13.322
 2760DOPC   NC332377   9.179  14.374  10.512
 2760DOPC   PO432378   8.819  14.454  10.812
 2760DOPC   GL132379   8.789  14.324  11.192
 2760DOPC   GL232380   8.629  14.514  11.342
 2760DOPC   C1A32381   8.849  13.974  11.602
 2760DOPC   D2A32382   9.009  14.104  12.002
 2760DOPC   C3A32383   9.019  13.814  12.382
 2760DOPC   C4A32384   9.229  13.554  12.492
 2760DOPC   C1B32385   8.409  14.244  11.592
 2760DOPC   D2B32386   8.039  14.184  11.892
 2760DOPC   C3B32387   8.189  14.094  12.372
 2760DOPC   C4B32388   7.989  13.884  12.762
 2761DOPC   NC332389  22.309  21.014  12.122
 2761DOPC   PO432390  22.639  20.634  12.162
 2761DOPC   GL132391  22.719  20.604  12.582
 2761DOPC   GL232392  22.939  20.704  12.742
 2761DOPC   C1A32393  22.659  20.484  13.062
 2761DOPC   D2A32394  22.399  20.584  13.452
 2761DOPC   C3A32395  22.009  20.894  13.462
 2761DOPC   C4A32396  21.879  21.184  13.762
 2761DOPC   C1B32397  23.089  20.874  13.162
 2761DOPC   D2B32398  23.209  21.304  13.422
 2761DOPC   C3B32399  23.459  21.491  13.152
 2761DOPC   C4B32400  23.909  21.461  12.982
 2762DOPC   NC332401   2.459  20.824  11.872
 2762DOPC   PO432402   1.929  20.744  11.722
 2762DOPC   GL132403   1.889  20.764  12.082
 2762DOPC   GL232404   2.179  20.514  12.272
 2762DOPC   C1A32405   2.059  21.084  12.372
 2762DOPC   D2A32406   2.109  21.561  12.432
 2762DOPC   C3A32407   2.099  21.791  12.712
 2762DOPC   C4A32408   1.919  21.681  13.062
 2762DOPC   C1B32409   1.759  20.364  12.372
 2762DOPC   D2B32410   1.529  20.334  12.792
 2762DOPC   C3B32411   1.699  20.164  12.982
 2762DOPC   C4B32412   1.999  20.374  13.242
 2763DOPC   NC332413   8.679  13.324  10.542
 2763DOPC   PO432414   8.659  13.484  10.972
 2763DOPC   GL132415   8.369  13.304  11.352
 2763DOPC   GL232416   8.599  13.114  11.432
 2763DOPC   C1A32417   8.169  13.204  11.842
 2763DOPC   D2A32418   8.269  13.454  12.142
 2763DOPC   C3A32419   8.259  13.364  12.482
 2763DOPC   C4A32420   8.219  13.064  12.852
 2763DOPC   C1B32421   8.769  13.344  11.832
 2763DOPC   D2B32422   8.749  13.384  12.332
 2763DOPC   C3B32423   8.739  13.294  12.762
 2763DOPC   C4B32424   8.829  13.394  13.212
 2764DOPC   NC332425  20.259  18.264  16.002
 2764DOPC   PO432426  20.589  18.014  15.742
 2764DOPC   GL132427  20.729  18.114  15.362
 2764DOPC   GL232428  20.889  18.384  15.302
 2764DOPC   C1A32429  20.919  17.834  15.042
 2764DOPC   D2A32430  20.709  17.914  14.662
 2764DOPC   C3A32431  20.409  18.074  14.392
 2764DOPC   C4A32432  20.039  17.904  14.052
 2764DOPC   C1B32433  21.009  18.264  14.892
 2764DOPC   D2B32434  21.279  18.464  14.702
 2764DOPC   C3B32435  21.499  18.294  14.382
 2764DOPC   C4B32436  21.909  18.444  14.222
 2765DOPC   NC332437  20.989  -0.196  16.222
 2765DOPC   PO432438  20.839   0.204  15.972
 2765DOPC   GL132439  20.989   0.074  15.622
 2765DOPC   GL232440  21.149   0.334  15.422
 2765DOPC   C1A32441  20.739   0.064  15.202
 2765DOPC   D2A32442  20.679  -0.096  14.782
 2765DOPC   C3A32443  20.169  -0.226  14.652
 2765DOPC   C4A32444  19.779   0.104  14.762
 2765DOPC   C1B32445  21.209   0.404  14.972
 2765DOPC   D2B32446  21.379   0.184  14.632
 2765DOPC   C3B32447  21.119  -0.116  14.462
 2765DOPC   C4B32448  21.149  -0.156  14.102
 2766DOPC   NC332449   2.729  14.244  11.652
 2766DOPC   PO432450   2.369  14.224  11.632
 2766DOPC   GL132451   2.469  14.064  12.012
 2766DOPC   GL232452   2.459  14.334  12.152
 2766DOPC   C1A32453   2.219  14.014  12.442
 2766DOPC   D2A32454   2.359  14.044  12.932
 2766DOPC   C3A32455   2.779  14.134  13.062
 2766DOPC   C4A32456   3.019  13.964  13.362
 2766DOPC   C1B32457   2.899  14.504  12.302
 2766DOPC   D2B32458   3.049  14.424  12.682
 2766DOPC   C3B32459   2.939  14.594  13.062
 2766DOPC   C4B32460   2.969  14.774  13.412
 2767DOPC   NC332461  24.379  14.114  15.972
 2767DOPC   PO432462  24.439  13.774  15.802
 2767DOPC   GL132463  24.479  13.864  15.322
 2767DOPC   GL232464  24.249  14.064  15.102
 2767DOPC   C1A32465  24.649  13.824  14.852
 2767DOPC   D2A32466  24.969  13.574  14.732
 2767DOPC   C3A32467  24.869  13.334  14.422
 2767DOPC   C4A32468  24.599  13.204  14.092
 2767DOPC   C1B32469  24.119  14.064  14.682
 2767DOPC   D2B32470  24.429  14.274  14.382
 2767DOPC   C3B32471  24.389  14.644  14.062
 2767DOPC   C4B32472  24.129  14.994  13.832
 2768DOPC   NC332473  24.719  19.884  16.282
 2768DOPC   PO432474  24.479  20.054  15.992
 2768DOPC   GL132475  24.639  20.214  15.642
 2768DOPC   GL232476  24.859  20.104  15.442
 2768DOPC   C1A32477  24.419  20.194  15.172
 2768DOPC   D2A32478  24.489  20.164  14.832
 2768DOPC   C3A32479  24.159  20.194  14.482
 2768DOPC   C4A32480  23.749  20.104  14.312
 2768DOPC   C1B32481  24.869  20.364  15.062
 2768DOPC   D2B32482  24.809  20.564  14.632
 2768DOPC   C3B32483  24.419  20.644  14.582
 2768DOPC   C4B32484  24.009  20.934  14.662
 2769DOPC   NC332485  12.309   9.674  14.082
 2769DOPC   PO432486  12.039   9.404  14.302
 2769DOPC   GL132487  12.219   9.214  13.902
 2769DOPC   GL232488  12.219   8.874  13.822
 2769DOPC   C1A32489  12.419   9.174  13.472
 2769DOPC   D2A32490  12.219   9.114  13.122
 2769DOPC   C3A32491  12.349   9.024  12.642
 2769DOPC   C4A32492  12.429   8.914  12.212
 2769DOPC   C1B32493  12.009   8.584  13.582
 2769DOPC   D2B32494  11.679   8.434  13.612
 2769DOPC   C3B32495  11.409   8.774  13.562
 2769DOPC   C4B32496  11.029   8.934  13.572
 2770DOPC   NC332497  19.049  10.414  14.992
 2770DOPC   PO432498  19.299  10.064  15.052
 2770DOPC   GL132499  19.289   9.994  14.592
 2770DOPC   GL232500  18.949   9.934  14.412
 2770DOPC   C1A32501  19.499   9.804  14.202
 2770DOPC   D2A32502  19.839   9.824  14.002
 2770DOPC   C3A32503  20.309   9.874  14.162
 2770DOPC   C4A32504  20.489   9.794  14.522
 2770DOPC   C1B32505  19.169  10.074  14.062
 2770DOPC   D2B32506  19.559  10.104  13.712
 2770DOPC   C3B32507  19.569  10.454  13.412
 2770DOPC   C4B32508  20.009  10.654  13.352
 2771DOPC   NC332509  23.399  24.651  16.522
 2771DOPC   PO432510  23.389  24.671  16.102
 2771DOPC   GL132511  23.479  24.731  15.632
 2771DOPC   GL232512  23.459  24.991  15.432
 2771DOPC   C1A32513  23.289  24.491  15.322
 2771DOPC   D2A32514  23.319  24.341  14.912
 2771DOPC   C3A32515  23.169  23.911  14.792
 2771DOPC   C4A32516  23.059  23.631  15.082
 2771DOPC   C1B32517  23.069  24.901  15.252
 2771DOPC   D2B32518  22.829  24.801  14.862
 2771DOPC   C3B32519  22.689  24.641  14.392
 2771DOPC   C4B32520  22.239  24.591  14.252
 2772DOPC   NC332521   0.219  25.011  12.162
 2772DOPC   PO432522   0.539  24.811  12.032
 2772DOPC   GL132523   0.649  25.051  12.522
 2772DOPC   GL232524   0.669  25.381  12.702
 2772DOPC   C1A32525   0.669  24.841  12.892
 2772DOPC   D2A32526   0.909  24.721  13.212
 2772DOPC   C3A32527   1.069  24.431  13.292
 2772DOPC   C4A32528   0.929  24.061  13.532
 2772DOPC   C1B32529   0.749  25.451  13.112
 2772DOPC   D2B32530   0.829  25.181  13.432
 2772DOPC   C3B32531   0.629  25.241  13.912
 2772DOPC   C4B32532   0.659  25.611  14.072
 2773DOPC   NC332533  11.629   6.184  14.452
 2773DOPC   PO432534  11.269   5.884  14.612
 2773DOPC   GL132535  11.029   5.774  14.312
 2773DOPC   GL232536  10.709   5.904  14.332
 2773DOPC   C1A32537  10.949   5.824  13.852
 2773DOPC   D2A32538  10.849   5.844  13.332
 2773DOPC   C3A32539  10.819   5.454  13.062
 2773DOPC   C4A32540  10.579   5.094  12.922
 2773DOPC   C1B32541  10.399   6.124  14.062
 2773DOPC   D2B32542  10.699   6.334  13.822
 2773DOPC   C3B32543  11.029   6.304  13.522
 2773DOPC   C4B32544  11.109   6.194  13.122
 2774DOPC   NC332545  24.969  12.634  11.522
 2774DOPC   PO432546  24.579  12.574  11.732
 2774DOPC   GL132547  24.549  12.464  12.152
 2774DOPC   GL232548  24.639  12.734  12.272
 2774DOPC   C1A32549  24.519  12.194  12.552
 2774DOPC   D2A32550  24.339  12.004  12.772
 2774DOPC   C3A32551  24.049  11.884  13.122
 2774DOPC   C4A32552  23.929  11.994  13.522
 2774DOPC   C1B32553  24.839  12.584  12.642
 2774DOPC   D2B32554  24.809  12.234  12.992
 2774DOPC   C3B32555  25.099  12.084  13.322
 2774DOPC   C4B32556  25.169  11.774  13.632
 2775DOPC   NC332557  19.079  12.144  15.572
 2775DOPC   PO432558  18.819  11.834  15.352
 2775DOPC   GL132559  19.039  11.864  15.022
 2775DOPC   GL232560  19.369  11.704  15.022
 2775DOPC   C1A32561  19.239  11.954  14.592
 2775DOPC   D2A32562  19.689  12.004  14.392
 2775DOPC   C3A32563  19.689  12.324  14.082
 2775DOPC   C4A32564  19.819  12.734  13.782
 2775DOPC   C1B32565  19.689  11.654  14.722
 2775DOPC   D2B32566  20.099  11.824  14.562
 2775DOPC   C3B32567  20.209  12.034  14.192
 2775DOPC   C4B32568  20.219  12.294  13.852
 2776DOPC   NC332569  23.309  11.904  11.822
 2776DOPC   PO432570  23.629  11.654  11.562
 2776DOPC   GL132571  23.649  11.514  11.992
 2776DOPC   GL232572  23.559  11.654  12.272
 2776DOPC   C1A32573  23.929  11.254  12.272
 2776DOPC   D2A32574  24.099  10.894  12.412
 2776DOPC   C3A32575  24.259  10.934  12.912
 2776DOPC   C4A32576  24.379  10.984  13.372
 2776DOPC   C1B32577  23.629  11.374  12.632
 2776DOPC   D2B32578  23.909  11.314  13.012
 2776DOPC   C3B32579  23.859  11.104  13.372
 2776DOPC   C4B32580  23.719  11.004  13.862
 2777DOPC   NC332581  10.939  24.851  15.452
 2777DOPC   PO432582  10.619  24.751  15.182
 2777DOPC   GL132583  10.629  24.761  14.722
 2777DOPC   GL232584  10.689  25.081  14.532
 2777DOPC   C1A32585  10.459  24.491  14.352
 2777DOPC   D2A32586  10.189  24.191  14.202
 2777DOPC   C3A32587  10.129  23.881  14.362
 2777DOPC   C4A32588   9.799  23.581  14.332
 2777DOPC   C1B32589  10.899  25.341  14.232
 2777DOPC   D2B32590  10.799  25.541  13.832
 2777DOPC   C3B32591  10.969  25.531  13.472
 2777DOPC   C4B32592  10.969  25.841  13.242
 2778DOPC   NC332593  13.299  25.241  15.322
 2778DOPC   PO432594  12.899  25.201  15.182
 2778DOPC   GL132595  12.729  24.981  14.772
 2778DOPC   GL232596  12.359  24.891  14.892
 2778DOPC   C1A32597  12.689  25.001  14.282
 2778DOPC   D2A32598  12.759  25.241  13.812
 2778DOPC   C3A32599  12.579  25.541  13.552
 2778DOPC   C4A32600  12.459  25.701  13.242
 2778DOPC   C1B32601  12.509  24.591  14.562
 2778DOPC   D2B32602  12.869  24.511  14.222
 2778DOPC   C3B32603  12.889  24.721  13.932
 2778DOPC   C4B32604  13.019  24.841  13.602
 2779DOPC   NC332605  25.009  22.781  11.832
 2779DOPC   PO432606  25.499  22.821  12.102
 2779DOPC   GL132607  25.609  22.511  12.492
 2779DOPC   GL232608  25.489  22.211  12.462
 2779DOPC   C1A32609  25.826  22.401  12.822
 2779DOPC   D2A32610  25.896  22.331  13.302
 2779DOPC   C3A32611  25.539  22.361  13.602
 2779DOPC   C4A32612  25.269  22.651  13.872
 2779DOPC   C1B32613  25.219  22.191  12.882
 2779DOPC   D2B32614  25.269  22.041  13.302
 2779DOPC   C3B32615  25.469  21.601  13.122
 2779DOPC   C4B32616  25.716  21.324  12.832
 2780DOPC   NC332617   4.419  15.244  11.202
 2780DOPC   PO432618   4.219  15.274  11.422
 2780DOPC   GL132619   4.079  15.274  11.772
 2780DOPC   GL232620   3.859  15.124  11.872
 2780DOPC   C1A32621   4.169  15.534  12.122
 2780DOPC   D2A32622   4.309  15.444  12.552
 2780DOPC   C3A32623   4.239  15.524  12.912
 2780DOPC   C4A32624   4.629  15.704  13.242
 2780DOPC   C1B32625   4.049  14.974  12.292
 2780DOPC   D2B32626   3.959  14.824  12.692
 2780DOPC   C3B32627   4.159  14.474  13.012
 2780DOPC   C4B32628   3.989  13.964  12.992
 2781DOPC   NC332629  10.669   6.764  15.392
 2781DOPC   PO432630  10.429   6.854  14.982
 2781DOPC   GL132631  10.379   6.834  14.482
 2781DOPC   GL232632  10.389   7.144  14.342
 2781DOPC   C1A32633  10.339   6.604  14.022
 2781DOPC   D2A32634  10.189   6.414  13.752
 2781DOPC   C3A32635  10.139   6.394  13.282
 2781DOPC   C4A32636  10.189   6.394  12.842
 2781DOPC   C1B32637  10.109   7.054  14.012
 2781DOPC   D2B32638  10.099   6.914  13.652
 2781DOPC   C3B32639  10.509   6.654  13.502
 2781DOPC   C4B32640  10.599   6.244  13.222
 2782DOPC   NC332641   6.369   4.854  11.022
 2782DOPC   PO432642   5.929   4.984  10.992
 2782DOPC   GL132643   5.989   4.954  11.472
 2782DOPC   GL232644   6.349   4.864  11.482
 2782DOPC   C1A32645   5.999   5.104  11.922
 2782DOPC   D2A32646   5.879   4.994  12.342
 2782DOPC   C3A32647   6.209   4.884  12.682
 2782DOPC   C4A32648   6.599   5.184  12.912
 2782DOPC   C1B32649   6.389   4.854  11.832
 2782DOPC   D2B32650   6.389   5.004  12.242
 2782DOPC   C3B32651   6.689   4.834  12.552
 2782DOPC   C4B32652   6.929   4.774  12.932
 2783DOPC   NC332653  22.629  10.154  15.652
 2783DOPC   PO432654  22.989  10.204  15.382
 2783DOPC   GL132655  22.919  10.024  14.992
 2783DOPC   GL232656  22.919   9.664  15.032
 2783DOPC   C1A32657  23.199   9.874  14.662
 2783DOPC   D2A32658  23.309   9.744  14.302
 2783DOPC   C3A32659  23.379   9.844  13.802
 2783DOPC   C4A32660  23.839   9.874  13.712
 2783DOPC   C1B32661  22.929   9.434  14.602
 2783DOPC   D2B32662  22.779   9.424  14.232
 2783DOPC   C3B32663  22.529   9.694  14.122
 2783DOPC   C4B32664  22.229   9.854  13.922
 2784DOPC   NC332665  10.799   7.094  14.662
 2784DOPC   PO432666  10.759   7.534  14.492
 2784DOPC   GL132667  10.919   7.344  14.222
 2784DOPC   GL232668  11.209   7.354  14.282
 2784DOPC   C1A32669  11.129   7.324  13.772
 2784DOPC   D2A32670  11.239   7.244  13.342
 2784DOPC   C3A32671  11.459   7.664  13.132
 2784DOPC   C4A32672  11.979   7.684  13.042
 2784DOPC   C1B32673  11.149   6.894  14.012
 2784DOPC   D2B32674  11.049   6.854  13.652
 2784DOPC   C3B32675  11.169   6.714  13.272
 2784DOPC   C4B32676  11.089   6.944  12.952
 2785DOPC   NC332677  14.019  17.524  14.472
 2785DOPC   PO432678  14.199  17.914  14.692
 2785DOPC   GL132679  14.099  17.974  14.312
 2785DOPC   GL232680  14.089  18.234  14.012
 2785DOPC   C1A32681  14.119  17.784  13.832
 2785DOPC   D2A32682  13.689  17.754  13.612
 2785DOPC   C3A32683  13.339  18.014  13.602
 2785DOPC   C4A32684  13.039  18.234  13.692
 2785DOPC   C1B32685  14.089  18.204  13.522
 2785DOPC   D2B32686  14.099  17.824  13.292
 2785DOPC   C3B32687  13.939  17.384  13.362
 2785DOPC   C4B32688  14.209  17.004  13.242
 2786DOPC   NC332689  15.479  23.161  15.482
 2786DOPC   PO432690  15.309  22.651  15.362
 2786DOPC   GL132691  15.319  22.731  15.012
 2786DOPC   GL232692  15.279  23.051  14.922
 2786DOPC   C1A32693  15.479  22.631  14.702
 2786DOPC   D2A32694  15.599  22.391  14.412
 2786DOPC   C3A32695  15.419  22.281  14.042
 2786DOPC   C4A32696  15.379  22.301  13.592
 2786DOPC   C1B32697  15.059  22.871  14.612
 2786DOPC   D2B32698  15.219  22.721  14.262
 2786DOPC   C3B32699  15.529  22.731  13.952
 2786DOPC   C4B32700  15.869  22.771  13.642
 2787DOPC   NC332701  22.699   6.694  15.362
 2787DOPC   PO432702  22.289   6.824  15.572
 2787DOPC   GL132703  22.119   6.694  15.182
 2787DOPC   GL232704  22.369   6.644  14.922
 2787DOPC   C1A32705  21.839   6.694  14.872
 2787DOPC   D2A32706  21.459   6.424  14.762
 2787DOPC   C3A32707  21.389   6.194  14.412
 2787DOPC   C4A32708  21.039   6.124  14.142
 2787DOPC   C1B32709  22.469   6.214  14.812
 2787DOPC   D2B32710  22.459   5.924  14.452
 2787DOPC   C3B32711  22.299   5.944  14.122
 2787DOPC   C4B32712  22.119   5.964  13.742
 2788DOPC   NC332713  16.489   1.694  15.572
 2788DOPC   PO432714  16.439   1.194  15.552
 2788DOPC   GL132715  16.639   0.914  15.312
 2788DOPC   GL232716  16.499   0.744  15.092
 2788DOPC   C1A32717  16.979   0.954  14.972
 2788DOPC   D2A32718  17.309   0.954  14.672
 2788DOPC   C3A32719  17.709   0.884  14.532
 2788DOPC   C4A32720  18.019   0.614  14.672
 2788DOPC   C1B32721  16.429   0.314  14.892
 2788DOPC   D2B32722  16.529   0.264  14.452
 2788DOPC   C3B32723  16.249   0.124  14.202
 2788DOPC   C4B32724  16.239   0.024  13.762
 2789DOPC   NC332725  17.559  20.664  16.042
 2789DOPC   PO432726  17.959  20.934  15.872
 2789DOPC   GL132727  18.049  20.894  15.352
 2789DOPC   GL232728  18.309  20.824  15.172
 2789DOPC   C1A32729  17.969  21.184  15.042
 2789DOPC   D2A32730  17.929  21.194  14.522
 2789DOPC   C3A32731  17.539  20.964  14.402
 2789DOPC   C4A32732  17.239  20.834  14.072
 2789DOPC   C1B32733  18.389  20.894  14.752
 2789DOPC   D2B32734  18.489  21.184  14.372
 2789DOPC   C3B32735  18.809  21.431  14.222
 2789DOPC   C4B32736  18.919  21.741  13.882
 2790DOPC   NC332737   9.209  13.224  14.612
 2790DOPC   PO432738   9.039  12.924  14.652
 2790DOPC   GL132739   8.899  13.094  14.262
 2790DOPC   GL232740   8.729  13.344  14.212
 2790DOPC   C1A32741   9.009  13.094  13.822
 2790DOPC   D2A32742   9.169  13.084  13.372
 2790DOPC   C3A32743   9.299  13.404  13.102
 2790DOPC   C4A32744   9.449  13.734  12.882
 2790DOPC   C1B32745   8.629  13.474  13.812
 2790DOPC   D2B32746   8.489  13.764  13.462
 2790DOPC   C3B32747   8.669  13.984  13.292
 2790DOPC   C4B32748   8.579  14.144  12.982
 2791DOPC   NC332749   2.109  13.814  15.262
 2791DOPC   PO432750   2.249  13.464  15.162
 2791DOPC   GL132751   2.459  13.494  14.792
 2791DOPC   GL232752   2.739  13.774  14.762
 2791DOPC   C1A32753   2.579  13.394  14.402
 2791DOPC   D2A32754   2.489  13.464  14.032
 2791DOPC   C3A32755   2.109  13.594  13.902
 2791DOPC   C4A32756   1.779  13.954  13.852
 2791DOPC   C1B32757   2.509  13.924  14.392
 2791DOPC   D2B32758   2.149  13.784  14.372
 2791DOPC   C3B32759   1.839  14.004  14.362
 2791DOPC   C4B32760   1.829  14.314  14.542
 2792DOPC   NC332761   6.459  12.524  15.232
 2792DOPC   PO432762   6.269  12.254  14.882
 2792DOPC   GL132763   6.399  12.034  14.642
 2792DOPC   GL232764   6.209  11.834  14.582
 2792DOPC   C1A32765   6.729  11.794  14.392
 2792DOPC   D2A32766   7.029  11.634  14.102
 2792DOPC   C3A32767   6.959  11.394  13.672
 2792DOPC   C4A32768   7.079  11.074  13.482
 2792DOPC   C1B32769   6.369  12.074  14.152
 2792DOPC   D2B32770   6.179  12.084  13.752
 2792DOPC   C3B32771   6.429  11.974  13.432
 2792DOPC   C4B32772   6.789  11.734  13.342
 2793DOPC   NC332773   0.639   3.884  15.862
 2793DOPC   PO432774   0.999   3.924  15.522
 2793DOPC   GL132775   1.109   4.044  15.102
 2793DOPC   GL232776   1.369   4.334  14.972
 2793DOPC   C1A32777   1.109   4.034  14.622
 2793DOPC   D2A32778   1.009   4.254  14.242
 2793DOPC   C3A32779   1.259   4.474  13.832
 2793DOPC   C4A32780   1.309   4.444  13.372
 2793DOPC   C1B32781   1.429   4.534  14.682
 2793DOPC   D2B32782   1.599   4.584  14.322
 2793DOPC   C3B32783   1.589   4.844  14.002
 2793DOPC   C4B32784   1.839   4.854  13.592
 2794DOPC   NC332785  11.019  13.124  10.302
 2794DOPC   PO432786  10.999  13.464  10.562
 2794DOPC   GL132787  11.239  13.754  10.942
 2794DOPC   GL232788  10.979  14.014  11.102
 2794DOPC   C1A32789  11.609  13.824  11.042
 2794DOPC   D2A32790  11.999  14.034  11.222
 2794DOPC   C3A32791  12.119  14.044  11.682
 2794DOPC   C4A32792  12.339  13.964  12.082
 2794DOPC   C1B32793  10.849  13.924  11.542
 2794DOPC   D2B32794  10.959  13.974  11.992
 2794DOPC   C3B32795  10.669  13.854  12.282
 2794DOPC   C4B32796  10.219  13.754  12.402
 2795DOPC   NC332797   7.139  20.184  16.052
 2795DOPC   PO432798   7.079  20.234  15.632
 2795DOPC   GL132799   7.089  20.154  15.262
 2795DOPC   GL232800   6.819  20.344  15.142
 2795DOPC   C1A32801   7.239  20.314  14.782
 2795DOPC   D2A32802   7.499  20.314  14.522
 2795DOPC   C3A32803   7.509  20.184  14.082
 2795DOPC   C4A32804   7.379  20.074  13.792
 2795DOPC   C1B32805   6.559  20.134  14.852
 2795DOPC   D2B32806   6.359  20.194  14.472
 2795DOPC   C3B32807   6.529  20.214  14.032
 2795DOPC   C4B32808   6.399  19.944  13.642
 2796DOPC   NC332809  20.839  16.764  15.812
 2796DOPC   PO432810  20.769  17.164  15.612
 2796DOPC   GL132811  20.669  16.994  15.272
 2796DOPC   GL232812  20.669  16.674  15.332
 2796DOPC   C1A32813  20.869  16.844  14.902
 2796DOPC   D2A32814  21.059  17.034  14.542
 2796DOPC   C3A32815  20.929  16.814  14.092
 2796DOPC   C4A32816  20.859  16.454  13.852
 2796DOPC   C1B32817  20.369  16.684  14.922
 2796DOPC   D2B32818  20.109  16.904  14.602
 2796DOPC   C3B32819  20.119  16.954  14.162
 2796DOPC   C4B32820  20.189  17.064  13.662
 2797DOPC   NC332821   2.929   8.484  11.562
 2797DOPC   PO432822   2.639   8.344  11.552
 2797DOPC   GL132823   2.409   8.294  11.952
 2797DOPC   GL232824   2.379   7.984  12.092
 2797DOPC   C1A32825   2.189   8.534  12.232
 2797DOPC   D2A32826   2.189   8.944  12.402
 2797DOPC   C3A32827   2.499   9.144  12.722
 2797DOPC   C4A32828   2.489   9.444  13.042
 2797DOPC   C1B32829   2.319   8.094  12.502
 2797DOPC   D2B32830   2.179   8.234  12.802
 2797DOPC   C3B32831   1.769   8.124  12.932
 2797DOPC   C4B32832   1.399   8.114  13.002
 2798DOPC   NC332833  23.089   8.334  15.922
 2798DOPC   PO432834  23.499   8.264  15.742
 2798DOPC   GL132835  23.409   8.464  15.392
 2798DOPC   GL232836  23.609   8.644  15.272
 2798DOPC   C1A32837  23.299   8.344  15.012
 2798DOPC   D2A32838  23.389   8.274  14.562
 2798DOPC   C3A32839  23.159   8.344  14.112
 2798DOPC   C4A32840  22.759   8.134  13.852
 2798DOPC   C1B32841  23.809   8.514  14.932
 2798DOPC   D2B32842  24.009   8.394  14.522
 2798DOPC   C3B32843  23.979   8.674  14.102
 2798DOPC   C4B32844  24.169   9.114  14.092
 2799DOPC   NC332845  17.159  21.771  15.752
 2799DOPC   PO432846  16.849  22.041  15.662
 2799DOPC   GL132847  16.549  22.031  15.312
 2799DOPC   GL232848  16.519  21.681  15.152
 2799DOPC   C1A32849  16.559  22.351  14.842
 2799DOPC   D2A32850  16.359  22.461  14.502
 2799DOPC   C3A32851  16.489  22.591  14.082
 2799DOPC   C4A32852  16.579  22.721  13.702
 2799DOPC   C1B32853  16.129  21.831  14.922
 2799DOPC   D2B32854  15.959  22.121  14.662
 2799DOPC   C3B32855  16.089  22.161  14.222
 2799DOPC   C4B32856  15.859  22.301  13.872
 2800DOPC   NC332857   4.349   4.924  15.312
 2800DOPC   PO432858   4.389   4.564  15.132
 2800DOPC   GL132859   4.569   4.664  14.672
 2800DOPC   GL232860   4.899   4.824  14.682
 2800DOPC   C1A32861   4.569   4.614  14.152
 2800DOPC   D2A32862   4.289   4.624  13.802
 2800DOPC   C3A32863   4.099   5.004  13.772
 2800DOPC   C4A32864   3.799   5.264  13.512
 2800DOPC   C1B32865   5.099   4.674  14.302
 2800DOPC   D2B32866   5.039   4.404  13.972
 2800DOPC   C3B32867   5.429   4.104  13.862
 2800DOPC   C4B32868   5.759   4.194  13.452
 2801DOPC   NC332869  13.259  18.534  11.022
 2801DOPC   PO432870  13.669  18.514  10.842
 2801DOPC   GL132871  13.809  18.684  11.182
 2801DOPC   GL232872  13.559  18.844  11.342
 2801DOPC   C1A32873  13.929  18.464  11.582
 2801DOPC   D2A32874  14.079  18.294  11.982
 2801DOPC   C3A32875  14.129  18.484  12.382
 2801DOPC   C4A32876  14.209  18.264  12.912
 2801DOPC   C1B32877  13.499  18.974  11.682
 2801DOPC   D2B32878  13.189  18.804  12.022
 2801DOPC   C3B32879  13.169  18.864  12.512
 2801DOPC   C4B32880  12.909  18.774  12.882
 2802DOPC   NC332881   5.189   2.914  15.342
 2802DOPC   PO432882   5.449   3.174  14.992
 2802DOPC   GL132883   5.379   2.864  14.672
 2802DOPC   GL232884   5.609   2.954  14.462
 2802DOPC   C1A32885   5.239   2.744  14.262
 2802DOPC   D2A32886   5.319   2.614  13.832
 2802DOPC   C3A32887   5.749   2.744  13.612
 2802DOPC   C4A32888   6.209   2.634  13.672
 2802DOPC   C1B32889   5.659   2.994  14.082
 2802DOPC   D2B32890   5.439   3.134  13.622
 2802DOPC   C3B32891   5.069   3.454  13.662
 2802DOPC   C4B32892   4.659   3.384  13.272
 2803DOPC   NC332893  14.999  19.194  11.082
 2803DOPC   PO432894  14.609  19.014  11.302
 2803DOPC   GL132895  14.689  18.884  11.792
 2803DOPC   GL232896  14.409  18.724  11.882
 2803DOPC   C1A32897  14.829  19.094  12.332
 2803DOPC   D2A32898  15.069  19.424  12.402
 2803DOPC   C3A32899  15.379  19.484  12.742
 2803DOPC   C4A32900  15.379  19.284  13.202
 2803DOPC   C1B32901  14.599  18.634  12.302
 2803DOPC   D2B32902  14.549  18.534  12.692
 2803DOPC   C3B32903  14.639  18.774  13.042
 2803DOPC   C4B32904  14.539  19.194  13.222
 2804DOPC   NC332905   2.409  23.801  11.762
 2804DOPC   PO432906   2.039  24.021  11.752
 2804DOPC   GL132907   1.939  24.321  12.142
 2804DOPC   GL232908   2.249  24.471  12.222
 2804DOPC   C1A32909   1.819  24.491  12.542
 2804DOPC   D2A32910   1.969  24.511  12.922
 2804DOPC   C3A32911   2.069  24.231  13.212
 2804DOPC   C4A32912   2.199  23.841  13.322
 2804DOPC   C1B32913   2.269  24.221  12.582
 2804DOPC   D2B32914   2.159  23.811  12.832
 2804DOPC   C3B32915   2.389  23.511  12.892
 2804DOPC   C4B32916   2.819  23.411  12.922
 2805DOPC   NC332917  17.749  18.664  16.152
 2805DOPC   PO432918  17.899  18.384  15.812
 2805DOPC   GL132919  17.929  18.414  15.372
 2805DOPC   GL232920  17.719  18.254  15.162
 2805DOPC   C1A32921  18.159  18.374  15.032
 2805DOPC   D2A32922  18.319  18.584  14.652
 2805DOPC   C3A32923  18.219  18.324  14.342
 2805DOPC   C4A32924  17.979  18.064  14.192
 2805DOPC   C1B32925  17.379  18.074  14.872
 2805DOPC   D2B32926  17.069  18.084  14.602
 2805DOPC   C3B32927  16.949  17.724  14.662
 2805DOPC   C4B32928  16.579  17.614  14.692
 2806DOPC   NC332929   0.839  -0.026  15.952
 2806DOPC   PO432930   1.359   0.094  15.812
 2806DOPC   GL132931   1.419   0.334  15.402
 2806DOPC   GL232932   1.689   0.474  15.422
 2806DOPC   C1A32933   1.289   0.574  15.132
 2806DOPC   D2A32934   1.029   0.704  14.672
 2806DOPC   C3A32935   1.129   1.114  14.422
 2806DOPC   C4A32936   1.009   1.324  14.082
 2806DOPC   C1B32937   1.849   0.604  15.002
 2806DOPC   D2B32938   2.039   0.754  14.612
 2806DOPC   C3B32939   2.529   0.794  14.432
 2806DOPC   C4B32940   2.979   0.894  14.252
 2807DOPC   NC332941  21.719  12.664  11.812
 2807DOPC   PO432942  21.929  13.054  11.862
 2807DOPC   GL132943  22.149  13.274  12.192
 2807DOPC   GL232944  22.509  13.054  12.362
 2807DOPC   C1A32945  22.149  13.224  12.672
 2807DOPC   D2A32946  22.009  13.124  13.152
 2807DOPC   C3A32947  22.319  12.934  13.452
 2807DOPC   C4A32948  22.679  12.894  13.782
 2807DOPC   C1B32949  22.759  13.334  12.632
 2807DOPC   D2B32950  22.999  13.604  12.772
 2807DOPC   C3B32951  23.319  13.544  13.072
 2807DOPC   C4B32952  23.759  13.544  13.302
 2808DOPC   NC332953   6.669   3.984  10.862
 2808DOPC   PO432954   6.349   3.704  10.992
 2808DOPC   GL132955   6.529   3.764  11.462
 2808DOPC   GL232956   6.769   3.834  11.382
 2808DOPC   C1A32957   6.629   3.624  11.842
 2808DOPC   D2A32958   6.689   3.644  12.242
 2808DOPC   C3A32959   7.049   3.314  12.452
 2808DOPC   C4A32960   7.029   2.934  12.642
 2808DOPC   C1B32961   7.279   3.774  11.462
 2808DOPC   D2B32962   7.649   3.894  11.852
 2808DOPC   C3B32963   7.359   3.934  12.212
 2808DOPC   C4B32964   6.989   3.944  12.522
 2809DOPC   NC332965   7.099  19.034  11.712
 2809DOPC   PO432966   7.119  18.674  11.512
 2809DOPC   GL132967   7.489  18.724  11.802
 2809DOPC   GL232968   7.769  18.524  11.702
 2809DOPC   C1A32969   7.569  18.544  12.242
 2809DOPC   D2A32970   7.919  18.564  12.412
 2809DOPC   C3A32971   7.769  18.424  12.892
 2809DOPC   C4A32972   7.799  18.574  13.312
 2809DOPC   C1B32973   7.919  18.284  12.042
 2809DOPC   D2B32974   7.969  18.034  12.452
 2809DOPC   C3B32975   8.209  18.224  12.792
 2809DOPC   C4B32976   8.389  18.494  13.132
 2810DOPC   NC332977   6.709   1.724  15.222
 2810DOPC   PO432978   6.689   1.324  15.492
 2810DOPC   GL132979   6.709   1.234  15.002
 2810DOPC   GL232980   6.719   0.824  14.832
 2810DOPC   C1A32981   6.649   1.224  14.582
 2810DOPC   D2A32982   6.489   1.524  14.222
 2810DOPC   C3A32983   6.739   1.804  14.022
 2810DOPC   C4A32984   6.769   2.034  13.682
 2810DOPC   C1B32985   6.859   0.704  14.412
 2810DOPC   D2B32986   6.879   0.514  14.032
 2810DOPC   C3B32987   6.799   0.514  13.632
 2810DOPC   C4B32988   6.779   0.674  13.252
 2811DOPC   NC332989   7.479  17.304  11.682
 2811DOPC   PO432990   7.689  17.024  11.782
 2811DOPC   GL132991   7.939  17.054  12.082
 2811DOPC   GL232992   8.149  16.854  12.212
 2811DOPC   C1A32993   7.779  16.884  12.502
 2811DOPC   D2A32994   7.979  16.694  12.882
 2811DOPC   C3A32995   7.749  16.534  13.162
 2811DOPC   C4A32996   7.759  16.444  13.492
 2811DOPC   C1B32997   8.369  16.754  12.582
 2811DOPC   D2B32998   8.479  16.614  12.972
 2811DOPC   C3B32999   8.249  16.764  13.292
 2811DOPC   C4B33000   7.899  16.944  13.632
 2812DOPC   NC333001   8.549  23.251  10.762
 2812DOPC   PO433002   8.479  23.351  11.222
 2812DOPC   GL133003   8.819  23.341  11.512
 2812DOPC   GL233004   8.989  23.191  11.502
 2812DOPC   C1A33005   8.859  23.421  11.932
 2812DOPC   D2A33006   8.739  23.641  12.372
 2812DOPC   C3A33007   8.339  23.521  12.672
 2812DOPC   C4A33008   8.139  23.721  12.902
 2812DOPC   C1B33009   9.269  23.081  11.852
 2812DOPC   D2B33010   9.209  22.981  12.282
 2812DOPC   C3B33011   9.079  23.301  12.502
 2812DOPC   C4B33012   9.129  23.711  12.702
 2813DOPC   NC333013  17.949   7.994  14.472
 2813DOPC   PO433014  18.289   8.124  14.642
 2813DOPC   GL133015  18.389   8.144  14.202
 2813DOPC   GL233016  18.119   8.274  14.072
 2813DOPC   C1A33017  18.449   7.804  13.882
 2813DOPC   D2A33018  18.659   7.524  13.732
 2813DOPC   C3A33019  18.839   7.484  13.292
 2813DOPC   C4A33020  19.389   7.224  13.222
 2813DOPC   C1B33021  18.359   8.274  13.682
 2813DOPC   D2B33022  18.509   8.404  13.262
 2813DOPC   C3B33023  18.959   8.464  13.012
 2813DOPC   C4B33024  19.209   8.534  12.572
 2814DOPC   NC333025   0.909   7.964  15.522
 2814DOPC   PO433026   1.149   8.154  15.162
 2814DOPC   GL133027   1.209   8.404  14.702
 2814DOPC   GL233028   0.959   8.344  14.532
 2814DOPC   C1A33029   1.519   8.354  14.392
 2814DOPC   D2A33030   1.689   8.164  14.102
 2814DOPC   C3A33031   1.459   7.864  13.852
 2814DOPC   C4A33032   1.389   7.744  13.422
 2814DOPC   C1B33033   1.329   7.924  14.332
 2814DOPC   D2B33034   1.499   7.554  14.262
 2814DOPC   C3B33035   1.369   7.314  13.932
 2814DOPC   C4B33036   1.039   7.424  13.572
 2815DOPC   NC333037  10.769  14.444  10.862
 2815DOPC   PO433038  10.439  14.104  10.892
 2815DOPC   GL133039  10.429  13.804  11.282
 2815DOPC   GL233040  10.379  14.024  11.462
 2815DOPC   C1A33041  10.299  13.484  11.542
 2815DOPC   D2A33042  10.039  13.294  11.792
 2815DOPC   C3A33043   9.849  12.974  11.992
 2815DOPC   C4A33044   9.589  12.784  12.292
 2815DOPC   C1B33045  10.299  13.924  11.882
 2815DOPC   D2B33046  10.149  14.194  12.182
 2815DOPC   C3B33047  10.289  14.644  12.192
 2815DOPC   C4B33048  10.139  15.004  12.282
 2816DOPC   NC333049  21.819  20.604   7.232
 2816DOPC   PO433050  22.029  20.164   7.372
 2816DOPC   GL133051  22.169  20.384   6.962
 2816DOPC   GL233052  22.049  20.184   6.622
 2816DOPC   C1A33053  22.449  20.464   6.622
 2816DOPC   D2A33054  22.679  20.514   6.272
 2816DOPC   C3A33055  23.019  20.274   6.252
 2816DOPC   C4A33056  23.219  20.024   5.942
 2816DOPC   C1B33057  22.039  20.414   6.282
 2816DOPC   D2B33058  22.229  20.724   5.922
 2816DOPC   C3B33059  22.459  20.494   5.642
 2816DOPC   C4B33060  22.699  20.394   5.222
 2817DOPC   NC333061   2.189  12.874  11.382
 2817DOPC   PO433062   1.799  12.774  11.612
 2817DOPC   GL133063   1.589  12.744  12.002
 2817DOPC   GL233064   1.559  13.104  12.172
 2817DOPC   C1A33065   1.499  12.704  12.432
 2817DOPC   D2A33066   1.369  13.114  12.712
 2817DOPC   C3A33067   1.019  13.094  13.032
 2817DOPC   C4A33068   0.719  13.104  13.382
 2817DOPC   C1B33069   1.839  13.184  12.462
 2817DOPC   D2B33070   2.279  13.204  12.732
 2817DOPC   C3B33071   2.469  12.824  12.762
 2817DOPC   C4B33072   2.259  12.474  12.942
 2818DOPC   NC333073  21.749  16.824  16.202
 2818DOPC   PO433074  21.679  16.934  15.802
 2818DOPC   GL133075  21.659  17.024  15.452
 2818DOPC   GL233076  21.649  16.674  15.232
 2818DOPC   C1A33077  21.859  17.164  15.002
 2818DOPC   D2A33078  21.939  17.044  14.632
 2818DOPC   C3A33079  21.929  16.894  14.232
 2818DOPC   C4A33080  21.539  16.884  13.932
 2818DOPC   C1B33081  22.109  16.734  15.232
 2818DOPC   D2B33082  22.609  16.824  15.312
 2818DOPC   C3B33083  22.839  17.274  15.152
 2818DOPC   C4B33084  22.939  17.694  14.872
 2819DOPC   NC333085   4.999  20.474  15.222
 2819DOPC   PO433086   4.699  20.854  15.362
 2819DOPC   GL133087   4.699  20.694  14.912
 2819DOPC   GL233088   4.659  21.004  14.632
 2819DOPC   C1A33089   4.649  20.444  14.582
 2819DOPC   D2A33090   4.679  20.224  14.212
 2819DOPC   C3A33091   4.729  20.074  13.762
 2819DOPC   C4A33092   4.929  20.254  13.372
 2819DOPC   C1B33093   4.679  21.254  14.262
 2819DOPC   D2B33094   4.719  21.314  13.832
 2819DOPC   C3B33095   4.489  21.601  13.612
 2819DOPC   C4B33096   4.059  21.661  13.442
 2820DOPC   NC333097   4.749  14.594  16.142
 2820DOPC   PO433098   4.579  14.504  15.732
 2820DOPC   GL133099   4.839  14.374  15.382
 2820DOPC   GL233100   4.729  14.144  15.152
 2820DOPC   C1A33101   5.109  14.454  15.052
 2820DOPC   D2A33102   5.129  14.084  14.742
 2820DOPC   C3A33103   5.549  14.074  14.532
 2820DOPC   C4A33104   5.759  14.424  14.252
 2820DOPC   C1B33105   4.589  14.024  14.702
 2820DOPC   D2B33106   4.539  13.944  14.282
 2820DOPC   C3B33107   4.809  14.204  14.132
 2820DOPC   C4B33108   4.929  14.294  13.772
 2821DOPC   NC333109  23.019   9.044  11.062
 2821DOPC   PO433110  22.779   9.384  11.262
 2821DOPC   GL133111  22.799   9.284  11.742
 2821DOPC   GL233112  22.549   9.444  11.932
 2821DOPC   C1A33113  22.769   9.044  12.162
 2821DOPC   D2A33114  22.959   8.784  12.482
 2821DOPC   C3A33115  22.869   8.384  12.502
 2821DOPC   C4A33116  23.029   8.074  12.722
 2821DOPC   C1B33117  22.559   9.504  12.342
 2821DOPC   D2B33118  22.509   9.714  12.722
 2821DOPC   C3B33119  22.299   9.584  13.052
 2821DOPC   C4B33120  22.019   9.434  13.482
 2822DOPC   NC333121  13.579   2.804  10.702
 2822DOPC   PO433122  13.689   3.054  11.052
 2822DOPC   GL133123  13.739   3.184  11.432
 2822DOPC   GL233124  13.429   3.044  11.532
 2822DOPC   C1A33125  13.909   2.924  11.742
 2822DOPC   D2A33126  13.959   2.864  12.132
 2822DOPC   C3A33127  14.429   2.844  12.302
 2822DOPC   C4A33128  14.699   3.184  12.332
 2822DOPC   C1B33129  13.439   2.854  11.832
 2822DOPC   D2B33130  13.489   2.764  12.292
 2822DOPC   C3B33131  13.729   2.334  12.312
 2822DOPC   C4B33132  13.969   1.974  12.382
 2823DOPC   NC333133  19.409  23.131  11.892
 2823DOPC   PO433134  19.299  23.561  12.022
 2823DOPC   GL133135  19.009  23.141  12.212
 2823DOPC   GL233136  19.259  23.121  12.462
 2823DOPC   C1A33137  18.789  22.861  12.572
 2823DOPC   D2A33138  18.549  22.901  13.002
 2823DOPC   C3A33139  18.119  23.121  12.822
 2823DOPC   C4A33140  17.679  23.141  12.952
 2823DOPC   C1B33141  19.109  23.121  12.862
 2823DOPC   D2B33142  19.159  23.141  13.352
 2823DOPC   C3B33143  19.359  23.001  13.562
 2823DOPC   C4B33144  19.549  23.001  14.012
 2824DOPC   NC333145   9.139  24.581  11.202
 2824DOPC   PO433146   8.809  24.331  11.222
 2824DOPC   GL133147   9.039  24.211  11.682
 2824DOPC   GL233148   8.809  23.991  11.842
 2824DOPC   C1A33149   9.209  24.411  12.182
 2824DOPC   D2A33150   9.169  24.481  12.662
 2824DOPC   C3A33151   8.779  24.581  12.952
 2824DOPC   C4A33152   8.539  24.391  13.202
 2824DOPC   C1B33153   9.069  23.961  12.242
 2824DOPC   D2B33154   9.469  24.021  12.442
 2824DOPC   C3B33155   9.629  24.401  12.502
 2824DOPC   C4B33156   9.949  24.621  12.482
 2825DOPC   NC333157   5.109   9.004  11.482
 2825DOPC   PO433158   4.829   9.094  11.562
 2825DOPC   GL133159   4.809   9.414  11.812
 2825DOPC   GL233160   4.819   9.274  12.122
 2825DOPC   C1A33161   4.599   9.784  12.162
 2825DOPC   D2A33162   4.629  10.154  12.432
 2825DOPC   C3A33163   4.919  10.084  12.842
 2825DOPC   C4A33164   5.319  10.024  13.102
 2825DOPC   C1B33165   4.689   8.884  12.242
 2825DOPC   D2B33166   4.679   8.634  12.642
 2825DOPC   C3B33167   4.329   8.764  12.752
 2825DOPC   C4B33168   4.009   8.984  12.582
 2826DOPC   NC333169   2.119   8.444  15.362
 2826DOPC   PO433170   2.419   8.734  15.282
 2826DOPC   GL133171   2.549   8.904  14.902
 2826DOPC   GL233172   2.469   8.774  14.552
 2826DOPC   C1A33173   2.539   9.244  14.602
 2826DOPC   D2A33174   2.789   9.564  14.452
 2826DOPC   C3A33175   3.299   9.484  14.312
 2826DOPC   C4A33176   3.699   9.464  14.452
 2826DOPC   C1B33177   2.279   9.014  14.212
 2826DOPC   D2B33178   2.189   8.874  13.822
 2826DOPC   C3B33179   2.439   8.624  13.552
 2826DOPC   C4B33180   2.559   8.154  13.722
 2827DOPC   NC333181  10.949  12.424  14.152
 2827DOPC   PO433182  11.369  12.384  14.162
 2827DOPC   GL133183  11.359  12.274  13.732
 2827DOPC   GL233184  11.609  12.174  13.612
 2827DOPC   C1A33185  11.149  12.184  13.332
 2827DOPC   D2A33186  10.829  11.934  13.082
 2827DOPC   C3A33187  10.639  12.184  12.752
 2827DOPC   C4A33188  10.329  12.164  12.482
 2827DOPC   C1B33189  11.759  11.874  13.252
 2827DOPC   D2B33190  11.849  11.864  12.842
 2827DOPC   C3B33191  11.559  11.754  12.542
 2827DOPC   C4B33192  11.189  11.614  12.522
 2828DOPC   NC333193  18.629  24.691  12.402
 2828DOPC   PO433194  18.909  24.421  12.432
 2828DOPC   GL133195  18.989  24.701  12.762
 2828DOPC   GL233196  19.119  25.001  12.652
 2828DOPC   C1A33197  18.899  24.991  13.122
 2828DOPC   D2A33198  18.669  25.081  13.402
 2828DOPC   C3A33199  18.489  24.691  13.532
 2828DOPC   C4A33200  18.129  24.531  13.182
 2828DOPC   C1B33201  19.389  24.831  13.022
 2828DOPC   D2B33202  19.179  24.661  13.342
 2828DOPC   C3B33203  19.029  24.671  13.722
 2828DOPC   C4B33204  18.779  24.461  14.012
 2829DOPC   NC333205   2.289  11.434  15.022
 2829DOPC   PO433206   2.159  11.074  14.912
 2829DOPC   GL133207   2.459  10.974  14.492
 2829DOPC   GL233208   2.629  11.224  14.512
 2829DOPC   C1A33209   2.599  10.864  14.082
 2829DOPC   D2A33210   2.749  10.984  13.682
 2829DOPC   C3A33211   2.789  10.644  13.442
 2829DOPC   C4A33212   2.449  10.454  13.222
 2829DOPC   C1B33213   3.019  11.134  14.292
 2829DOPC   D2B33214   3.469  11.324  14.272
 2829DOPC   C3B33215   3.769  10.934  14.392
 2829DOPC   C4B33216   4.079  10.784  14.542
 2830DOPC   NC333217   3.189   2.854  15.582
 2830DOPC   PO433218   3.609   2.844  15.422
 2830DOPC   GL133219   3.519   2.634  14.992
 2830DOPC   GL233220   3.779   2.724  14.642
 2830DOPC   C1A33221   3.209   2.664  14.652
 2830DOPC   D2A33222   2.829   2.924  14.562
 2830DOPC   C3A33223   2.569   2.644  14.512
 2830DOPC   C4A33224   2.649   2.254  14.392
 2830DOPC   C1B33225   3.779   2.624  14.262
 2830DOPC   D2B33226   3.659   2.594  13.902
 2830DOPC   C3B33227   3.539   2.164  13.662
 2830DOPC   C4B33228   3.519   1.994  13.282
 2831DOPC   NC333229  15.939  14.504  14.982
 2831DOPC   PO433230  15.499  14.594  15.042
 2831DOPC   GL133231  15.449  14.464  14.612
 2831DOPC   GL233232  15.559  14.674  14.312
 2831DOPC   C1A33233  15.099  14.414  14.342
 2831DOPC   D2A33234  14.909  14.484  13.942
 2831DOPC   C3A33235  14.879  14.684  13.602
 2831DOPC   C4A33236  15.169  14.974  13.472
 2831DOPC   C1B33237  15.629  15.164  14.302
 2831DOPC   D2B33238  15.649  15.534  14.042
 2831DOPC   C3B33239  15.839  15.614  13.722
 2831DOPC   C4B33240  15.679  15.694  13.272
 2832DOPC   NC333241  22.289   2.154  15.672
 2832DOPC   PO433242  22.069   2.524  15.712
 2832DOPC   GL133243  21.969   2.384  15.202
 2832DOPC   GL233244  21.649   2.464  15.052
 2832DOPC   C1A33245  22.019   2.264  14.742
 2832DOPC   D2A33246  21.929   2.284  14.272
 2832DOPC   C3A33247  21.539   2.264  14.202
 2832DOPC   C4A33248  21.689   1.914  13.962
 2832DOPC   C1B33249  21.729   2.664  14.542
 2832DOPC   D2B33250  21.439   2.834  14.122
 2832DOPC   C3B33251  21.429   2.574  13.782
 2832DOPC   C4B33252  21.499   2.534  13.402
 2833DOPC   NC333253  11.919  23.511  15.522
 2833DOPC   PO433254  11.879  23.731  15.182
 2833DOPC   GL133255  11.839  23.671  14.792
 2833DOPC   GL233256  11.559  23.631  14.632
 2833DOPC   C1A33257  12.029  23.561  14.462
 2833DOPC   D2A33258  12.029  23.401  13.952
 2833DOPC   C3A33259  12.119  23.561  13.632
 2833DOPC   C4A33260  12.139  23.641  13.282
 2833DOPC   C1B33261  11.559  23.511  14.222
 2833DOPC   D2B33262  11.579  23.391  13.742
 2833DOPC   C3B33263  11.589  23.641  13.412
 2833DOPC   C4B33264  11.689  23.851  13.062
 2834DOPC   NC333265  20.699  23.701  15.992
 2834DOPC   PO433266  20.259  23.511  16.002
 2834DOPC   GL133267  20.229  23.491  15.532
 2834DOPC   GL233268  19.909  23.541  15.462
 2834DOPC   C1A33269  20.269  23.101  15.272
 2834DOPC   D2A33270  20.009  22.841  14.982
 2834DOPC   C3A33271  20.069  22.751  14.602
 2834DOPC   C4A33272  19.739  22.591  14.272
 2834DOPC   C1B33273  19.969  23.841  15.152
 2834DOPC   D2B33274  19.719  24.241  14.852
 2834DOPC   C3B33275  19.449  24.021  14.612
 2834DOPC   C4B33276  19.509  23.861  14.242
 2835DOPC   NC333277  18.719  23.961  16.042
 2835DOPC   PO433278  18.449  24.351  16.022
 2835DOPC   GL133279  18.419  24.381  15.512
 2835DOPC   GL233280  18.159  24.151  15.452
 2835DOPC   C1A33281  18.369  24.401  14.952
 2835DOPC   D2A33282  18.439  24.461  14.472
 2835DOPC   C3A33283  18.309  24.201  14.122
 2835DOPC   C4A33284  18.149  23.821  13.812
 2835DOPC   C1B33285  17.909  24.331  15.142
 2835DOPC   D2B33286  17.829  24.441  14.722
 2835DOPC   C3B33287  17.909  24.571  14.392
 2835DOPC   C4B33288  17.789  24.151  14.292
 2836DOPC   NC333289  12.509   6.674  14.952
 2836DOPC   PO433290  12.579   6.664  14.462
 2836DOPC   GL133291  12.519   6.474  14.082
 2836DOPC   GL233292  12.619   6.824  13.892
 2836DOPC   C1A33293  12.579   6.364  13.672
 2836DOPC   D2A33294  12.279   6.084  13.522
 2836DOPC   C3A33295  12.259   5.894  13.082
 2836DOPC   C4A33296  11.949   5.664  12.772
 2836DOPC   C1B33297  12.829   6.874  13.422
 2836DOPC   D2B33298  13.219   6.964  13.322
 2836DOPC   C3B33299  13.399   7.134  13.072
 2836DOPC   C4B33300  13.319   7.544  12.882
 2837DOPC   NC333301   3.419  25.511  15.212
 2837DOPC   PO433302   3.839  25.651  15.222
 2837DOPC   GL133303   3.689  25.591  14.852
 2837DOPC   GL233304   3.459  25.351  14.692
 2837DOPC   C1A33305   3.609  25.811  14.392
 2837DOPC   D2A33306   3.519  26.091  14.102
 2837DOPC   C3A33307   3.279  26.221  13.832
 2837DOPC   C4A33308   3.089  25.971  13.582
 2837DOPC   C1B33309   3.539  25.211  14.272
 2837DOPC   D2B33310   3.709  25.381  13.952
 2837DOPC   C3B33311   3.769  25.161  13.512
 2837DOPC   C4B33312   3.789  24.781  13.292
 2838DOPC   NC333313  13.959  23.161  15.462
 2838DOPC   PO433314  14.339  22.881  15.262
 2838DOPC   GL133315  14.689  23.141  14.962
 2838DOPC   GL233316  14.769  23.401  15.042
 2838DOPC   C1A33317  14.719  23.221  14.552
 2838DOPC   D2A33318  14.759  23.501  14.182
 2838DOPC   C3A33319  14.609  23.371  13.712
 2838DOPC   C4A33320  14.349  23.281  13.492
 2838DOPC   C1B33321  14.359  23.511  14.752
 2838DOPC   D2B33322  13.959  23.311  14.482
 2838DOPC   C3B33323  13.669  23.071  14.622
 2838DOPC   C4B33324  13.319  23.231  14.342
 2839DOPC   NC333325   0.929  10.664  11.682
 2839DOPC   PO433326   1.429  10.674  11.662
 2839DOPC   GL133327   1.359  10.544  12.082
 2839DOPC   GL233328   1.209  10.224  11.932
 2839DOPC   C1A33329   1.419  10.624  12.502
 2839DOPC   D2A33330   1.609  10.404  12.892
 2839DOPC   C3A33331   1.789   9.994  13.072
 2839DOPC   C4A33332   1.899   9.554  13.042
 2839DOPC   C1B33333   0.979  10.314  12.292
 2839DOPC   D2B33334   0.989  10.534  12.702
 2839DOPC   C3B33335   0.719  10.494  13.062
 2839DOPC   C4B33336   0.339  10.624  13.172
 2840DOPC   NC333337   5.649   6.404  15.252
 2840DOPC   PO433338   6.079   6.314  14.992
 2840DOPC   GL133339   5.829   6.184  14.702
 2840DOPC   GL233340   5.809   5.944  14.642
 2840DOPC   C1A33341   5.639   6.504  14.392
 2840DOPC   D2A33342   5.519   6.924  14.472
 2840DOPC   C3A33343   5.439   7.204  14.192
 2840DOPC   C4A33344   5.829   7.494  14.062
 2840DOPC   C1B33345   5.869   5.954  14.182
 2840DOPC   D2B33346   6.049   5.924  13.772
 2840DOPC   C3B33347   5.979   5.674  13.392
 2840DOPC   C4B33348   5.689   5.504  13.072
 2841DOPC   NC333349   2.179  16.484  15.392
 2841DOPC   PO433350   1.779  16.564  15.652
 2841DOPC   GL133351   1.709  16.694  15.192
 2841DOPC   GL233352   2.059  16.654  14.962
 2841DOPC   C1A33353   1.489  16.564  14.722
 2841DOPC   D2A33354   1.239  16.744  14.402
 2841DOPC   C3A33355   1.379  17.034  14.062
 2841DOPC   C4A33356   1.219  17.464  14.052
 2841DOPC   C1B33357   2.069  16.784  14.542
 2841DOPC   D2B33358   2.349  17.024  14.172
 2841DOPC   C3B33359   2.779  16.864  14.102
 2841DOPC   C4B33360   3.259  17.134  14.012
 2842DOPC   NC333361   5.409  17.154  15.492
 2842DOPC   PO433362   5.169  16.764  15.382
 2842DOPC   GL133363   5.409  16.794  14.962
 2842DOPC   GL233364   5.449  16.484  14.902
 2842DOPC   C1A33365   5.139  16.924  14.602
 2842DOPC   D2A33366   4.899  16.874  14.222
 2842DOPC   C3A33367   4.959  16.534  13.972
 2842DOPC   C4A33368   4.569  16.374  13.692
 2842DOPC   C1B33369   5.259  16.474  14.462
 2842DOPC   D2B33370   5.409  16.354  14.062
 2842DOPC   C3B33371   5.259  16.034  13.802
 2842DOPC   C4B33372   5.069  15.664  13.692
 2843DOPC   NC333373   6.969   3.474  14.822
 2843DOPC   PO433374   7.219   3.104  14.832
 2843DOPC   GL133375   6.909   3.094  14.402
 2843DOPC   GL233376   6.609   2.804  14.322
 2843DOPC   C1A33377   7.019   2.934  13.992
 2843DOPC   D2A33378   7.349   3.034  13.702
 2843DOPC   C3A33379   7.349   2.814  13.322
 2843DOPC   C4A33380   7.029   2.674  13.082
 2843DOPC   C1B33381   6.589   2.994  13.852
 2843DOPC   D2B33382   6.909   3.104  13.412
 2843DOPC   C3B33383   6.679   3.404  13.132
 2843DOPC   C4B33384   6.689   3.444  12.682
 2844DOPC   NC333385  16.829  19.074  16.002
 2844DOPC   PO433386  16.669  18.704  15.832
 2844DOPC   GL133387  16.549  18.784  15.432
 2844DOPC   GL233388  16.599  18.514  15.252
 2844DOPC   C1A33389  16.619  19.064  15.082
 2844DOPC   D2A33390  16.889  19.044  14.672
 2844DOPC   C3A33391  16.959  19.214  14.222
 2844DOPC   C4A33392  16.959  19.454  13.852
 2844DOPC   C1B33393  17.019  18.484  15.032
 2844DOPC   D2B33394  17.349  18.644  14.732
 2844DOPC   C3B33395  17.349  18.974  14.372
 2844DOPC   C4B33396  17.479  18.924  13.942
 2845DOPC   NC333397   7.999   4.174  14.592
 2845DOPC   PO433398   7.809   3.844  14.402
 2845DOPC   GL133399   7.959   3.744  14.052
 2845DOPC   GL233400   8.149   4.144  13.952
 2845DOPC   C1A33401   7.819   3.554  13.612
 2845DOPC   D2A33402   7.619   3.294  13.272
 2845DOPC   C3A33403   7.159   3.434  13.052
 2845DOPC   C4A33404   6.929   3.924  13.122
 2845DOPC   C1B33405   8.339   4.354  13.592
 2845DOPC   D2B33406   8.469   4.744  13.302
 2845DOPC   C3B33407   8.129   4.814  13.052
 2845DOPC   C4B33408   7.789   5.124  12.992
 2846DOPC   NC333409  13.009   1.854  10.262
 2846DOPC   PO433410  12.789   1.754  10.602
 2846DOPC   GL133411  12.399   1.654  10.912
 2846DOPC   GL233412  12.479   1.564  11.252
 2846DOPC   C1A33413  11.999   1.514  11.152
 2846DOPC   D2A33414  11.629   1.494  11.362
 2846DOPC   C3A33415  11.649   1.574  11.782
 2846DOPC   C4A33416  11.899   1.724  12.162
 2846DOPC   C1B33417  12.269   1.634  11.662
 2846DOPC   D2B33418  12.389   1.674  12.162
 2846DOPC   C3B33419  12.179   1.374  12.412
 2846DOPC   C4B33420  12.039   1.034  12.722
 2847DOPC   NC333421   1.959   7.244  11.372
 2847DOPC   PO433422   1.739   7.664  11.372
 2847DOPC   GL133423   1.599   7.454  11.722
 2847DOPC   GL233424   1.679   7.184  11.812
 2847DOPC   C1A33425   1.559   7.484  12.202
 2847DOPC   D2A33426   1.539   7.244  12.582
 2847DOPC   C3A33427   1.219   7.484  13.012
 2847DOPC   C4A33428   0.889   7.774  13.242
 2847DOPC   C1B33429   2.079   7.484  11.992
 2847DOPC   D2B33430   2.279   7.494  12.392
 2847DOPC   C3B33431   2.539   7.614  12.802
 2847DOPC   C4B33432   2.829   7.604  13.092
 2848DOPC   NC333433  18.639  16.414  15.822
 2848DOPC   PO433434  18.489  16.474  15.322
 2848DOPC   GL133435  18.769  16.334  15.052
 2848DOPC   GL233436  18.559  16.074  15.012
 2848DOPC   C1A33437  18.739  16.494  14.692
 2848DOPC   D2A33438  18.699  16.514  14.322
 2848DOPC   C3A33439  19.059  16.474  14.082
 2848DOPC   C4A33440  19.489  16.324  14.102
 2848DOPC   C1B33441  18.419  16.094  14.592
 2848DOPC   D2B33442  18.279  15.744  14.342
 2848DOPC   C3B33443  17.999  15.794  13.962
 2848DOPC   C4B33444  17.639  15.694  13.782
 2849DOPC   NC333445  11.629  12.724  14.372
 2849DOPC   PO433446  11.679  13.024  14.042
 2849DOPC   GL133447  11.629  12.944  13.592
 2849DOPC   GL233448  11.509  12.624  13.392
 2849DOPC   C1A33449  11.439  13.004  13.082
 2849DOPC   D2A33450  11.339  13.434  12.842
 2849DOPC   C3A33451  11.149  13.654  12.522
 2849DOPC   C4A33452  10.969  13.434  12.202
 2849DOPC   C1B33453  11.919  12.824  13.152
 2849DOPC   D2B33454  12.259  12.764  13.002
 2849DOPC   C3B33455  12.319  12.804  12.592
 2849DOPC   C4B33456  12.009  12.984  12.252
 2850DOPC   NC333457  22.109  19.394  11.982
 2850DOPC   PO433458  21.849  19.024  12.262
 2850DOPC   GL133459  21.719  19.114  12.652
 2850DOPC   GL233460  21.499  18.914  12.762
 2850DOPC   C1A33461  21.889  19.014  13.032
 2850DOPC   D2A33462  21.939  19.324  13.402
 2850DOPC   C3A33463  22.069  19.224  13.782
 2850DOPC   C4A33464  22.089  18.964  14.022
 2850DOPC   C1B33465  21.379  18.984  13.192
 2850DOPC   D2B33466  21.549  19.024  13.632
 2850DOPC   C3B33467  21.169  19.164  13.872
 2850DOPC   C4B33468  20.909  19.044  14.202
 2851DOPC   NC333469   7.249   9.744  14.962
 2851DOPC   PO433470   7.709   9.654  14.752
 2851DOPC   GL133471   7.529   9.814  14.402
 2851DOPC   GL233472   7.219   9.664  14.462
 2851DOPC   C1A33473   7.339   9.704  13.982
 2851DOPC   D2A33474   6.989   9.714  13.752
 2851DOPC   C3A33475   6.739   9.934  13.422
 2851DOPC   C4A33476   6.449  10.214  13.212
 2851DOPC   C1B33477   7.069   9.364  14.212
 2851DOPC   D2B33478   6.939   9.234  13.822
 2851DOPC   C3B33479   7.109   9.384  13.372
 2851DOPC   C4B33480   6.899   9.124  13.102
 2852DOPC   NC333481  19.809   8.024  11.042
 2852DOPC   PO433482  19.449   7.804  11.262
 2852DOPC   GL133483  19.129   7.684  11.512
 2852DOPC   GL233484  18.919   7.374  11.462
 2852DOPC   C1A33485  18.719   7.654  11.902
 2852DOPC   D2A33486  18.409   7.564  12.112
 2852DOPC   C3A33487  18.459   7.504  12.552
 2852DOPC   C4A33488  18.399   7.624  13.002
 2852DOPC   C1B33489  19.129   7.394  11.942
 2852DOPC   D2B33490  18.949   7.454  12.352
 2852DOPC   C3B33491  18.869   7.794  12.672
 2852DOPC   C4B33492  18.649   8.014  12.932
 2853DOPC   NC333493  25.619  18.764  16.112
 2853DOPC   PO433494  25.279  19.044  15.852
 2853DOPC   GL133495  25.029  18.994  15.522
 2853DOPC   GL233496  24.749  19.054  15.652
 2853DOPC   C1A33497  25.009  18.854  15.182
 2853DOPC   D2A33498  25.069  18.814  14.812
 2853DOPC   C3A33499  24.919  18.534  14.482
 2853DOPC   C4A33500  25.089  18.204  14.152
 2853DOPC   C1B33501  24.529  18.624  15.492
 2853DOPC   D2B33502  24.489  18.474  15.172
 2853DOPC   C3B33503  24.549  18.594  14.932
 2853DOPC   C4B33504  24.509  18.774  14.602
 2854DOPC   NC333505   2.599  16.564  11.752
 2854DOPC   PO433506   2.619  16.954  11.812
 2854DOPC   GL133507   2.629  16.904  12.262
 2854DOPC   GL233508   2.619  16.534  12.232
 2854DOPC   C1A33509   2.959  16.794  12.492
 2854DOPC   D2A33510   3.249  16.674  12.772
 2854DOPC   C3A33511   3.659  16.804  12.712
 2854DOPC   C4A33512   4.089  16.784  12.702
 2854DOPC   C1B33513   2.439  16.404  12.582
 2854DOPC   D2B33514   2.459  16.044  12.832
 2854DOPC   C3B33515   2.279  15.634  12.692
 2854DOPC   C4B33516   1.939  15.404  12.902
 2855DOPC   NC333517  21.659  14.204  11.542
 2855DOPC   PO433518  21.689  14.044  11.892
 2855DOPC   GL133519  21.539  13.874  12.172
 2855DOPC   GL233520  21.179  13.994  12.232
 2855DOPC   C1A33521  21.579  13.884  12.692
 2855DOPC   D2A33522  21.299  13.694  12.912
 2855DOPC   C3A33523  21.019  13.884  13.332
 2855DOPC   C4A33524  20.929  14.054  13.842
 2855DOPC   C1B33525  20.989  14.024  12.572
 2855DOPC   D2B33526  21.069  14.244  12.972
 2855DOPC   C3B33527  21.499  14.204  13.122
 2855DOPC   C4B33528  21.789  14.494  13.352
 2856DOPC   NC333529   3.759  10.204  15.472
 2856DOPC   PO433530   3.689   9.764  15.502
 2856DOPC   GL133531   3.799   9.774  14.982
 2856DOPC   GL233532   4.019   9.654  14.912
 2856DOPC   C1A33533   3.579   9.924  14.582
 2856DOPC   D2A33534   3.609   9.824  14.142
 2856DOPC   C3A33535   3.599   9.474  13.892
 2856DOPC   C4A33536   3.889   9.304  13.572
 2856DOPC   C1B33537   4.059   9.824  14.492
 2856DOPC   D2B33538   4.079   9.724  14.082
 2856DOPC   C3B33539   3.929   9.884  13.742
 2856DOPC   C4B33540   3.679   9.844  13.442
 2857DOPC   NC333541  11.269   2.114  14.552
 2857DOPC   PO433542  11.329   1.784  14.422
 2857DOPC   GL133543  11.669   2.044  14.152
 2857DOPC   GL233544  11.699   2.464  14.022
 2857DOPC   C1A33545  11.979   2.104  13.892
 2857DOPC   D2A33546  12.169   2.214  13.512
 2857DOPC   C3A33547  12.129   2.654  13.562
 2857DOPC   C4A33548  11.699   2.784  13.552
 2857DOPC   C1B33549  11.279   2.504  13.962
 2857DOPC   D2B33550  10.859   2.574  13.982
 2857DOPC   C3B33551  10.669   2.684  13.682
 2857DOPC   C4B33552  10.259   2.724  13.572
 2858DOPC   NC333553   2.469  12.534  15.542
 2858DOPC   PO433554   2.389  12.824  15.272
 2858DOPC   GL133555   2.419  12.934  14.872
 2858DOPC   GL233556   2.099  12.844  14.772
 2858DOPC   C1A33557   2.309  12.874  14.362
 2858DOPC   D2A33558   2.049  13.154  14.122
 2858DOPC   C3A33559   1.599  13.014  13.952
 2858DOPC   C4A33560   1.279  13.084  13.702
 2858DOPC   C1B33561   1.779  12.784  14.462
 2858DOPC   D2B33562   1.769  12.564  14.172
 2858DOPC   C3B33563   1.949  12.644  13.732
 2858DOPC   C4B33564   1.979  12.824  13.312
 2859DOPC   NC333565   5.579   6.954  15.282
 2859DOPC   PO433566   5.189   7.284  15.292
 2859DOPC   GL133567   4.969   7.244  14.862
 2859DOPC   GL233568   4.699   7.034  14.782
 2859DOPC   C1A33569   5.009   7.094  14.412
 2859DOPC   D2A33570   4.869   7.164  14.162
 2859DOPC   C3A33571   4.649   7.284  13.702
 2859DOPC   C4A33572   4.689   7.454  13.262
 2859DOPC   C1B33573   4.519   7.284  14.562
 2859DOPC   D2B33574   4.169   7.474  14.612
 2859DOPC   C3B33575   4.059   7.754  14.302
 2859DOPC   C4B33576   3.639   7.954  14.122
 2860DOPC   NC333577  17.209  19.944  15.792
 2860DOPC   PO433578  17.099  19.554  15.872
 2860DOPC   GL133579  17.179  19.654  15.362
 2860DOPC   GL233580  17.319  20.004  15.322
 2860DOPC   C1A33581  17.439  19.534  15.002
 2860DOPC   D2A33582  17.529  19.164  14.822
 2860DOPC   C3A33583  17.729  19.234  14.432
 2860DOPC   C4A33584  17.909  19.214  13.972
 2860DOPC   C1B33585  17.689  20.004  15.002
 2860DOPC   D2B33586  17.679  19.794  14.592
 2860DOPC   C3B33587  17.669  20.104  14.292
 2860DOPC   C4B33588  17.719  20.464  14.122
 2861DOPC   NC333589  18.809  15.054  15.712
 2861DOPC   PO433590  18.439  14.814  15.612
 2861DOPC   GL133591  18.679  14.884  15.182
 2861DOPC   GL233592  18.489  14.844  14.962
 2861DOPC   C1A33593  18.979  15.224  15.042
 2861DOPC   D2A33594  19.319  15.434  14.982
 2861DOPC   C3A33595  19.309  15.704  14.642
 2861DOPC   C4A33596  19.529  16.104  14.682
 2861DOPC   C1B33597  18.799  14.564  14.812
 2861DOPC   D2B33598  18.769  14.144  14.772
 2861DOPC   C3B33599  18.799  13.774  14.512
 2861DOPC   C4B33600  18.759  13.274  14.552
 2862DOPC   NC333601  11.849   8.074  14.742
 2862DOPC   PO433602  11.439   8.234  14.542
 2862DOPC   GL133603  11.429   8.094  13.992
 2862DOPC   GL233604  11.439   7.754  14.012
 2862DOPC   C1A33605  11.409   8.044  13.552
 2862DOPC   D2A33606  11.469   8.304  13.132
 2862DOPC   C3A33607  11.609   8.144  12.782
 2862DOPC   C4A33608  11.939   8.194  12.722
 2862DOPC   C1B33609  11.549   7.534  13.642
 2862DOPC   D2B33610  11.919   7.344  13.492
 2862DOPC   C3B33611  12.239   7.264  13.132
 2862DOPC   C4B33612  12.369   7.374  12.732
 2863DOPC   NC333613  21.129  22.451  16.022
 2863DOPC   PO433614  20.899  22.891  16.162
 2863DOPC   GL133615  20.819  22.761  15.712
 2863DOPC   GL233616  20.429  22.741  15.582
 2863DOPC   C1A33617  20.969  22.861  15.272
 2863DOPC   D2A33618  20.889  22.991  14.872
 2863DOPC   C3A33619  20.449  23.001  14.822
 2863DOPC   C4A33620  20.219  23.151  14.482
 2863DOPC   C1B33621  20.369  22.501  15.182
 2863DOPC   D2B33622  20.189  22.301  14.902
 2863DOPC   C3B33623  20.209  22.271  14.512
 2863DOPC   C4B33624  20.199  21.951  14.172
 2864DOPC   NC333625   6.119  18.244  14.942
 2864DOPC   PO433626   5.999  18.674  15.152
 2864DOPC   GL133627   5.989  18.644  14.682
 2864DOPC   GL233628   5.779  18.654  14.452
 2864DOPC   C1A33629   6.219  18.504  14.222
 2864DOPC   D2A33630   6.129  18.664  13.842
 2864DOPC   C3A33631   6.269  19.034  13.712
 2864DOPC   C4A33632   6.519  19.384  13.452
 2864DOPC   C1B33633   5.569  19.024  14.222
 2864DOPC   D2B33634   5.789  19.254  13.842
 2864DOPC   C3B33635   5.589  18.904  13.552
 2864DOPC   C4B33636   5.269  18.674  13.212
 2865DOPC   NC333637  21.319   4.094  15.612
 2865DOPC   PO433638  21.739   4.264  15.412
 2865DOPC   GL133639  21.919   4.454  15.082
 2865DOPC   GL233640  22.249   4.294  14.952
 2865DOPC   C1A33641  22.099   4.724  14.792
 2865DOPC   D2A33642  22.009   5.144  14.782
 2865DOPC   C3A33643  21.629   5.234  14.492
 2865DOPC   C4A33644  21.229   5.244  14.282
 2865DOPC   C1B33645  22.199   4.274  14.612
 2865DOPC   D2B33646  22.029   4.254  14.102
 2865DOPC   C3B33647  22.249   4.084  13.742
 2865DOPC   C4B33648  22.439   3.834  13.462
 2866DOPC   NC333649  13.159  17.344  14.822
 2866DOPC   PO433650  13.159  17.694  14.632
 2866DOPC   GL133651  12.999  17.434  14.282
 2866DOPC   GL233652  13.089  17.074  14.372
 2866DOPC   C1A33653  12.689  17.704  13.902
 2866DOPC   D2A33654  12.659  17.854  13.452
 2866DOPC   C3A33655  12.539  17.584  13.142
 2866DOPC   C4A33656  12.549  17.054  13.122
 2866DOPC   C1B33657  13.139  17.014  13.932
 2866DOPC   D2B33658  12.929  17.084  13.602
 2866DOPC   C3B33659  13.079  16.874  13.102
 2866DOPC   C4B33660  13.159  16.624  12.662
 2867DOPC   NC333661   9.279  15.544  10.972
 2867DOPC   PO433662   9.279  15.164  10.932
 2867DOPC   GL133663   9.279  15.014  11.332
 2867DOPC   GL233664   9.109  14.734  11.492
 2867DOPC   C1A33665   9.419  14.974  11.772
 2867DOPC   D2A33666   9.619  14.914  12.092
 2867DOPC   C3A33667   9.479  14.914  12.542
 2867DOPC   C4A33668   9.099  14.724  12.742
 2867DOPC   C1B33669   8.869  14.504  11.772
 2867DOPC   D2B33670   8.539  14.314  12.082
 2867DOPC   C3B33671   8.539  13.854  11.952
 2867DOPC   C4B33672   8.419  13.694  11.652
 2868DOPC   NC333673  20.259   6.924  15.642
 2868DOPC   PO433674  20.329   6.934  15.152
 2868DOPC   GL133675  20.379   6.614  14.802
 2868DOPC   GL233676  20.109   6.754  14.732
 2868DOPC   C1A33677  20.499   6.604  14.322
 2868DOPC   D2A33678  20.699   6.404  13.992
 2868DOPC   C3A33679  21.169   6.504  13.772
 2868DOPC   C4A33680  21.349   6.444  13.352
 2868DOPC   C1B33681  19.919   6.944  14.402
 2868DOPC   D2B33682  19.799   7.014  13.932
 2868DOPC   C3B33683  19.469   7.254  13.732
 2868DOPC   C4B33684  19.079   7.244  13.642
 2869DOPC   NC333685   2.299   3.794  15.552
 2869DOPC   PO433686   2.169   3.854  15.252
 2869DOPC   GL133687   2.359   3.794  14.782
 2869DOPC   GL233688   2.039   3.644  14.592
 2869DOPC   C1A33689   2.419   3.784  14.342
 2869DOPC   D2A33690   2.369   3.684  13.922
 2869DOPC   C3A33691   2.139   3.324  13.902
 2869DOPC   C4A33692   2.029   2.934  13.992
 2869DOPC   C1B33693   1.899   3.754  14.232
 2869DOPC   D2B33694   1.889   3.804  13.862
 2869DOPC   C3B33695   2.119   3.704  13.532
 2869DOPC   C4B33696   2.189   3.564  13.162
 2870DOPC   NC333697   7.579   2.924  14.552
 2870DOPC   PO433698   7.499   2.664  14.342
 2870DOPC   GL133699   7.529   2.614  13.952
 2870DOPC   GL233700   7.889   2.434  13.972
 2870DOPC   C1A33701   7.649   2.424  13.542
 2870DOPC   D2A33702   7.729   2.474  13.022
 2870DOPC   C3A33703   7.479   2.774  12.862
 2870DOPC   C4A33704   7.459   3.164  12.742
 2870DOPC   C1B33705   8.189   2.134  13.842
 2870DOPC   D2B33706   8.469   2.084  13.472
 2870DOPC   C3B33707   8.419   1.914  13.092
 2870DOPC   C4B33708   8.159   2.034  12.762
 2871DOPC   NC333709   6.249  16.494  15.332
 2871DOPC   PO433710   5.939  16.414  15.072
 2871DOPC   GL133711   5.809  16.664  14.692
 2871DOPC   GL233712   5.849  17.014  14.742
 2871DOPC   C1A33713   5.579  16.824  14.372
 2871DOPC   D2A33714   5.369  17.234  14.272
 2871DOPC   C3A33715   5.119  17.314  13.942
 2871DOPC   C4A33716   4.999  17.474  13.502
 2871DOPC   C1B33717   5.879  17.254  14.392
 2871DOPC   D2B33718   5.709  17.164  13.882
 2871DOPC   C3B33719   5.469  17.524  13.682
 2871DOPC   C4B33720   5.339  17.944  13.422
 2872DOPC   NC333721   1.209  12.484  15.312
 2872DOPC   PO433722   1.519  12.224  15.202
 2872DOPC   GL133723   1.539  12.214  14.712
 2872DOPC   GL233724   1.819  12.284  14.592
 2872DOPC   C1A33725   1.509  11.994  14.312
 2872DOPC   D2A33726   1.229  12.114  13.932
 2872DOPC   C3A33727   1.649  12.154  13.562
 2872DOPC   C4A33728   1.869  12.164  13.242
 2872DOPC   C1B33729   1.979  12.074  14.242
 2872DOPC   D2B33730   2.069  12.064  13.762
 2872DOPC   C3B33731   2.159  11.684  13.682
 2872DOPC   C4B33732   2.489  11.504  13.432
 2873DOPC   NC333733   9.629  14.774  14.882
 2873DOPC   PO433734   9.829  15.194  14.792
 2873DOPC   GL133735   9.619  15.074  14.482
 2873DOPC   GL233736   9.779  15.194  14.202
 2873DOPC   C1A33737   9.749  14.714  14.122
 2873DOPC   D2A33738   9.569  14.404  13.882
 2873DOPC   C3A33739   9.589  14.624  13.482
 2873DOPC   C4A33740   9.609  14.684  13.052
 2873DOPC   C1B33741   9.759  15.504  14.052
 2873DOPC   D2B33742   9.899  15.684  13.662
 2873DOPC   C3B33743   9.699  15.794  13.222
 2873DOPC   C4B33744   9.499  16.134  13.162
 2874DOPC   NC333745   8.139  24.241  15.182
 2874DOPC   PO433746   7.789  24.471  15.192
 2874DOPC   GL133747   7.979  24.581  14.862
 2874DOPC   GL233748   8.279  24.681  14.852
 2874DOPC   C1A33749   8.099  24.591  14.442
 2874DOPC   D2A33750   7.949  24.711  14.052
 2874DOPC   C3A33751   7.609  24.831  13.912
 2874DOPC   C4A33752   7.229  25.051  13.852
 2874DOPC   C1B33753   8.009  25.031  14.602
 2874DOPC   D2B33754   7.649  25.021  14.352
 2874DOPC   C3B33755   7.579  24.561  14.472
 2874DOPC   C4B33756   7.809  24.251  14.452
 2875DOPC   NC333757  15.939   6.864  10.702
 2875DOPC   PO433758  15.969   6.754  11.202
 2875DOPC   GL133759  15.659   6.724  11.502
 2875DOPC   GL233760  15.569   6.314  11.552
 2875DOPC   C1A33761  15.629   6.544  11.952
 2875DOPC   D2A33762  15.779   6.774  12.292
 2875DOPC   C3A33763  15.699   6.624  12.732
 2875DOPC   C4A33764  15.929   6.374  13.002
 2875DOPC   C1B33765  15.329   6.064  11.792
 2875DOPC   D2B33766  15.209   6.344  12.152
 2875DOPC   C3B33767  15.239   6.774  12.192
 2875DOPC   C4B33768  15.439   7.014  11.872
 2876DOPC   NC333769  15.529  10.244  10.422
 2876DOPC   PO433770  15.209   9.974  10.412
 2876DOPC   GL133771  15.269   9.964  10.792
 2876DOPC   GL233772  15.499  10.164  10.952
 2876DOPC   C1A33773  15.159   9.834  11.272
 2876DOPC   D2A33774  15.099   9.474  11.502
 2876DOPC   C3A33775  14.789   9.474  11.972
 2876DOPC   C4A33776  14.509   9.374  12.232
 2876DOPC   C1B33777  15.169  10.334  11.152
 2876DOPC   D2B33778  14.889  10.614  11.182
 2876DOPC   C3B33779  14.909  11.034  11.422
 2876DOPC   C4B33780  15.149  11.204  11.632
 2877DOPC   NC333781  25.229   1.834  15.592
 2877DOPC   PO433782  25.559   1.864  15.372
 2877DOPC   GL133783  25.349   1.824  14.912
 2877DOPC   GL233784  25.149   1.694  15.002
 2877DOPC   C1A33785  25.299   1.754  14.402
 2877DOPC   D2A33786  25.209   1.464  14.102
 2877DOPC   C3A33787  24.789   1.554  13.942
 2877DOPC   C4A33788  24.419   1.514  13.702
 2877DOPC   C1B33789  24.989   1.444  14.822
 2877DOPC   D2B33790  24.839   1.364  14.402
 2877DOPC   C3B33791  24.569   1.194  14.302
 2877DOPC   C4B33792  24.379   1.094  13.932
 2878DOPC   NC333793  11.909  19.064  14.692
 2878DOPC   PO433794  11.479  19.154  14.982
 2878DOPC   GL133795  11.259  19.314  14.642
 2878DOPC   GL233796  11.269  19.534  14.462
 2878DOPC   C1A33797  11.239  19.174  14.172
 2878DOPC   D2A33798  11.229  19.214  13.742
 2878DOPC   C3A33799  11.289  19.404  13.322
 2878DOPC   C4A33800  11.179  19.474  13.002
 2878DOPC   C1B33801  10.999  19.544  14.062
 2878DOPC   D2B33802  10.759  19.514  13.652
 2878DOPC   C3B33803  10.819  19.224  13.312
 2878DOPC   C4B33804  10.729  18.804  13.172
 2879DOPC   NC333805  17.679  16.004  15.362
 2879DOPC   PO433806  17.229  16.164  15.352
 2879DOPC   GL133807  17.029  16.374  15.112
 2879DOPC   GL233808  16.979  16.224  14.842
 2879DOPC   C1A33809  17.269  16.704  14.932
 2879DOPC   D2A33810  17.269  16.694  14.392
 2879DOPC   C3A33811  17.279  16.964  14.102
 2879DOPC   C4A33812  17.139  17.234  13.872
 2879DOPC   C1B33813  16.889  16.324  14.352
 2879DOPC   D2B33814  16.549  16.374  14.112
 2879DOPC   C3B33815  16.239  16.174  13.912
 2879DOPC   C4B33816  16.179  15.864  14.022
 2880DOPC   NC333817  14.239  16.854  10.682
 2880DOPC   PO433818  14.029  16.754  11.072
 2880DOPC   GL133819  13.889  17.034  11.352
 2880DOPC   GL233820  13.609  16.894  11.452
 2880DOPC   C1A33821  13.669  17.424  11.622
 2880DOPC   D2A33822  13.409  17.564  11.892
 2880DOPC   C3A33823  12.979  17.804  11.822
 2880DOPC   C4A33824  12.599  18.044  11.792
 2880DOPC   C1B33825  13.339  17.064  11.902
 2880DOPC   D2B33826  13.249  17.054  12.342
 2880DOPC   C3B33827  13.029  17.204  12.622
 2880DOPC   C4B33828  12.699  17.554  12.612
 2881DOPC   NC333829   2.879  22.131  11.772
 2881DOPC   PO433830   2.519  22.451  11.782
 2881DOPC   GL133831   2.559  22.191  12.172
 2881DOPC   GL233832   2.379  21.931  12.282
 2881DOPC   C1A33833   2.769  22.131  12.522
 2881DOPC   D2A33834   2.869  21.981  12.882
 2881DOPC   C3A33835   2.599  21.901  13.232
 2881DOPC   C4A33836   2.259  22.101  13.332
 2881DOPC   C1B33837   2.589  21.631  12.512
 2881DOPC   D2B33838   2.949  21.354  12.622
 2881DOPC   C3B33839   3.229  21.551  12.792
 2881DOPC   C4B33840   3.639  21.881  12.772
 2882DOPC   NC333841  10.869   8.714  10.442
 2882DOPC   PO433842  11.209   8.744  10.792
 2882DOPC   GL133843  11.169   8.594  11.242
 2882DOPC   GL233844  11.019   8.804  11.292
 2882DOPC   C1A33845  11.339   8.604  11.732
 2882DOPC   D2A33846  11.559   8.794  11.832
 2882DOPC   C3A33847  12.049   8.694  11.882
 2882DOPC   C4A33848  12.529   8.734  11.762
 2882DOPC   C1B33849  10.669   8.634  11.522
 2882DOPC   D2B33850  10.549   8.234  11.772
 2882DOPC   C3B33851  10.119   8.164  11.772
 2882DOPC   C4B33852   9.839   7.844  11.622
 2883DOPC   NC333853   0.579   5.204  15.512
 2883DOPC   PO433854   0.569   4.654  15.542
 2883DOPC   GL133855   0.689   4.414  15.122
 2883DOPC   GL233856   0.409   4.254  15.032
 2883DOPC   C1A33857   0.759   4.354  14.742
 2883DOPC   D2A33858   0.539   4.294  14.332
 2883DOPC   C3A33859   0.479   4.154  13.902
 2883DOPC   C4A33860   0.329   3.964  13.552
 2883DOPC   C1B33861   0.329   4.624  14.752
 2883DOPC   D2B33862   0.469   4.854  14.332
 2883DOPC   C3B33863   0.749   4.624  13.982
 2883DOPC   C4B33864   0.759   4.444  13.572
 2884DOPC   NC333865  13.399  17.704  15.092
 2884DOPC   PO433866  13.619  17.374  14.862
 2884DOPC   GL133867  13.519  17.264  14.462
 2884DOPC   GL233868  13.519  17.574  14.292
 2884DOPC   C1A33869  13.599  17.074  14.142
 2884DOPC   D2A33870  13.649  17.094  13.772
 2884DOPC   C3A33871  13.429  17.244  13.402
 2884DOPC   C4A33872  13.039  17.364  13.082
 2884DOPC   C1B33873  13.339  17.504  13.862
 2884DOPC   D2B33874  13.079  17.574  13.592
 2884DOPC   C3B33875  13.019  17.904  13.192
 2884DOPC   C4B33876  13.169  18.304  13.142
 2885DOPC   NC333877  24.309   7.154  15.382
 2885DOPC   PO433878  24.349   6.704  15.492
 2885DOPC   GL133879  24.509   6.774  15.082
 2885DOPC   GL233880  24.229   6.994  14.882
 2885DOPC   C1A33881  24.729   6.934  14.702
 2885DOPC   D2A33882  24.869   7.254  14.402
 2885DOPC   C3A33883  25.089   7.284  14.112
 2885DOPC   C4A33884  25.149   7.074  13.652
 2885DOPC   C1B33885  24.189   6.694  14.562
 2885DOPC   D2B33886  24.549   6.494  14.342
 2885DOPC   C3B33887  24.489   6.354  13.972
 2885DOPC   C4B33888  24.739   6.234  13.502
 2886DOPC   NC333889  23.349  19.294  16.412
 2886DOPC   PO433890  23.109  18.954  16.332
 2886DOPC   GL133891  23.159  18.994  15.882
 2886DOPC   GL233892  23.499  19.044  15.992
 2886DOPC   C1A33893  23.409  18.834  15.562
 2886DOPC   D2A33894  23.629  18.794  15.142
 2886DOPC   C3A33895  23.659  19.024  14.832
 2886DOPC   C4A33896  23.399  19.214  14.542
 2886DOPC   C1B33897  23.429  19.324  15.612
 2886DOPC   D2B33898  23.369  19.244  15.192
 2886DOPC   C3B33899  23.469  19.544  14.922
 2886DOPC   C4B33900  23.519  19.694  14.432
 2887DOPC   NC333901  16.069  15.224  10.792
 2887DOPC   PO433902  15.539  15.134  10.812
 2887DOPC   GL133903  15.369  14.904  11.162
 2887DOPC   GL233904  15.179  14.754  11.082
 2887DOPC   C1A33905  15.489  14.694  11.582
 2887DOPC   D2A33906  15.539  14.304  11.722
 2887DOPC   C3A33907  15.389  14.194  12.092
 2887DOPC   C4A33908  15.039  13.864  12.182
 2887DOPC   C1B33909  15.039  14.554  11.422
 2887DOPC   D2B33910  15.069  14.544  11.902
 2887DOPC   C3B33911  14.879  14.654  12.402
 2887DOPC   C4B33912  14.859  14.854  12.742
 2888DOPC   NC333913   7.469  14.214  10.702
 2888DOPC   PO433914   7.479  14.684  10.742
 2888DOPC   GL133915   7.549  14.464  11.132
 2888DOPC   GL233916   7.659  14.694  11.422
 2888DOPC   C1A33917   7.639  14.254  11.642
 2888DOPC   D2A33918   7.689  14.494  12.052
 2888DOPC   C3A33919   7.769  14.394  12.402
 2888DOPC   C4A33920   7.979  14.424  12.882
 2888DOPC   C1B33921   7.609  14.914  11.832
 2888DOPC   D2B33922   7.929  15.024  12.182
 2888DOPC   C3B33923   8.219  14.704  12.392
 2888DOPC   C4B33924   8.579  14.664  12.702
 2889DOPC   NC333925  23.709  15.884  12.192
 2889DOPC   PO433926  23.949  16.354  12.202
 2889DOPC   GL133927  24.069  16.464  12.612
 2889DOPC   GL233928  24.329  16.674  12.652
 2889DOPC   C1A33929  24.059  16.464  13.002
 2889DOPC   D2A33930  24.319  16.574  13.262
 2889DOPC   C3A33931  24.169  16.924  13.352
 2889DOPC   C4A33932  24.019  17.354  13.642
 2889DOPC   C1B33933  24.549  16.854  12.912
 2889DOPC   D2B33934  24.469  17.274  13.192
 2889DOPC   C3B33935  24.489  17.384  13.682
 2889DOPC   C4B33936  24.559  17.774  13.932
 2890DOPC   NC333937  24.449   1.984  12.022
 2890DOPC   PO433938  24.029   1.994  12.092
 2890DOPC   GL133939  24.089   2.304  12.342
 2890DOPC   GL233940  24.169   2.634  12.352
 2890DOPC   C1A33941  24.129   2.234  12.742
 2890DOPC   D2A33942  24.139   1.914  13.092
 2890DOPC   C3A33943  23.799   1.564  13.292
 2890DOPC   C4A33944  23.619   1.264  13.392
 2890DOPC   C1B33945  23.919   2.774  12.702
 2890DOPC   D2B33946  23.729   3.124  13.002
 2890DOPC   C3B33947  23.339   3.044  13.162
 2890DOPC   C4B33948  23.329   2.604  13.352
 2891DOPC   NC333949  18.119  21.411  15.812
 2891DOPC   PO433950  18.429  21.611  15.622
 2891DOPC   GL133951  18.279  21.501  15.232
 2891DOPC   GL233952  18.089  21.651  15.242
 2891DOPC   C1A33953  18.459  21.344  14.872
 2891DOPC   D2A33954  18.909  21.274  14.752
 2891DOPC   C3A33955  19.219  21.304  14.562
 2891DOPC   C4A33956  19.259  21.294  14.042
 2891DOPC   C1B33957  18.099  21.671  14.762
 2891DOPC   D2B33958  18.009  21.651  14.302
 2891DOPC   C3B33959  18.089  21.334  14.072
 2891DOPC   C4B33960  18.129  20.934  14.122
 2892DOPC   NC333961  22.589  13.164  11.882
 2892DOPC   PO433962  22.399  12.834  11.762
 2892DOPC   GL133963  22.299  12.634  12.162
 2892DOPC   GL233964  22.609  12.384  12.392
 2892DOPC   C1A33965  22.229  12.634  12.612
 2892DOPC   D2A33966  22.149  12.644  13.052
 2892DOPC   C3A33967  21.849  12.694  13.422
 2892DOPC   C4A33968  21.529  12.914  13.462
 2892DOPC   C1B33969  22.899  12.144  12.552
 2892DOPC   D2B33970  23.309  11.904  12.682
 2892DOPC   C3B33971  23.109  11.614  13.042
 2892DOPC   C4B33972  22.939  11.464  13.442
 2893DOPC   NC333973   7.559  21.214  15.282
 2893DOPC   PO433974   7.779  20.894  15.332
 2893DOPC   GL133975   8.029  20.964  14.882
 2893DOPC   GL233976   7.839  21.254  14.792
 2893DOPC   C1A33977   8.219  21.044  14.522
 2893DOPC   D2A33978   8.369  20.894  14.182
 2893DOPC   C3A33979   8.149  20.824  13.822
 2893DOPC   C4A33980   7.979  20.464  13.762
 2893DOPC   C1B33981   7.629  20.924  14.502
 2893DOPC   D2B33982   7.199  20.684  14.332
 2893DOPC   C3B33983   7.119  20.644  13.802
 2893DOPC   C4B33984   7.119  20.344  13.452
 2894DOPC   NC333985   3.929  15.894  15.742
 2894DOPC   PO433986   3.479  15.774  15.532
 2894DOPC   GL133987   3.419  15.744  15.062
 2894DOPC   GL233988   3.229  15.604  14.852
 2894DOPC   C1A33989   3.719  15.594  14.782
 2894DOPC   D2A33990   3.549  15.354  14.362
 2894DOPC   C3A33991   3.419  15.074  14.162
 2894DOPC   C4A33992   3.069  14.894  13.952
 2894DOPC   C1B33993   3.299  15.754  14.492
 2894DOPC   D2B33994   3.239  16.034  14.142
 2894DOPC   C3B33995   3.009  16.144  13.712
 2894DOPC   C4B33996   2.729  16.524  13.602
 2895DOPC   NC333997  22.349  17.744  15.892
 2895DOPC   PO433998  22.079  18.094  15.882
 2895DOPC   GL133999  22.049  17.924  15.502
 2895DOPC   GL234000  21.909  17.684  15.282
 2895DOPC   C1A34001  22.189  18.134  15.092
 2895DOPC   D2A34002  22.559  18.154  14.982
 2895DOPC   C3A34003  22.709  18.504  14.772
 2895DOPC   C4A34004  22.599  18.864  14.912
 2895DOPC   C1B34005  21.989  17.664  14.762
 2895DOPC   D2B34006  21.989  17.414  14.282
 2895DOPC   C3B34007  22.419  17.474  14.102
 2895DOPC   C4B34008  22.779  17.374  14.332
 2896DOPC   NC334009  23.579  22.341  12.702
 2896DOPC   PO434010  23.159  22.041  12.702
 2896DOPC   GL134011  22.859  22.031  13.012
 2896DOPC   GL234012  22.769  22.381  12.862
 2896DOPC   C1A34013  22.679  22.131  13.272
 2896DOPC   D2A34014  22.579  22.421  13.522
 2896DOPC   C3A34015  22.589  22.461  14.022
 2896DOPC   C4A34016  22.829  22.521  14.332
 2896DOPC   C1B34017  22.849  22.661  13.182
 2896DOPC   D2B34018  22.769  23.021  13.322
 2896DOPC   C3B34019  22.289  23.181  13.452
 2896DOPC   C4B34020  22.159  23.391  13.902
 2897DOPC   NC334021  17.689   5.274  15.382
 2897DOPC   PO434022  18.069   5.114  15.222
 2897DOPC   GL134023  18.189   5.184  14.842
 2897DOPC   GL234024  18.089   4.974  14.652
 2897DOPC   C1A34025  18.369   5.454  14.462
 2897DOPC   D2A34026  18.379   5.734  14.152
 2897DOPC   C3A34027  18.139   5.604  13.802
 2897DOPC   C4A34028  18.129   5.084  13.732
 2897DOPC   C1B34029  17.899   4.794  14.132
 2897DOPC   D2B34030  17.789   4.494  13.852
 2897DOPC   C3B34031  17.379   4.344  13.572
 2897DOPC   C4B34032  16.989   4.274  13.182
 2898DOPC   NC334033  22.569  14.544  15.652
 2898DOPC   PO434034  22.129  14.544  15.772
 2898DOPC   GL134035  22.099  14.794  15.392
 2898DOPC   GL234036  22.349  15.044  15.232
 2898DOPC   C1A34037  21.899  14.704  15.062
 2898DOPC   D2A34038  21.709  14.394  14.712
 2898DOPC   C3A34039  21.669  14.004  14.492
 2898DOPC   C4A34040  21.339  13.924  14.172
 2898DOPC   C1B34041  22.209  14.974  14.842
 2898DOPC   D2B34042  22.049  15.054  14.482
 2898DOPC   C3B34043  21.639  14.964  14.252
 2898DOPC   C4B34044  21.469  15.214  13.902
 2899DOPC   NC334045  23.459  20.834  16.502
 2899DOPC   PO434046  23.559  21.094  16.082
 2899DOPC   GL134047  23.469  21.154  15.512
 2899DOPC   GL234048  23.509  21.431  15.252
 2899DOPC   C1A34049  23.589  20.974  15.082
 2899DOPC   D2A34050  23.429  20.714  14.802
 2899DOPC   C3A34051  23.119  20.864  14.422
 2899DOPC   C4A34052  22.809  20.924  14.182
 2899DOPC   C1B34053  23.049  21.541  15.032
 2899DOPC   D2B34054  22.819  21.511  14.612
 2899DOPC   C3B34055  23.139  21.441  14.262
 2899DOPC   C4B34056  23.629  21.531  14.342
 2900DOPC   NC334057  10.269   0.914  10.832
 2900DOPC   PO434058  10.359   1.304  11.052
 2900DOPC   GL134059  10.589   1.324  11.422
 2900DOPC   GL234060  10.839   1.254  11.472
 2900DOPC   C1A34061  10.559   1.594  11.802
 2900DOPC   D2A34062  10.829   1.804  12.142
 2900DOPC   C3A34063  10.719   2.164  12.482
 2900DOPC   C4A34064  10.619   2.544  12.662
 2900DOPC   C1B34065  10.819   1.144  11.962
 2900DOPC   D2B34066  10.849   0.934  12.352
 2900DOPC   C3B34067  11.159   0.594  12.352
 2900DOPC   C4B34068  11.279   0.454  11.992
 2901DOPC   NC334069   0.439  13.764   7.612
 2901DOPC   PO434070   0.839  13.564   7.592
 2901DOPC   GL134071   0.849  13.504   7.242
 2901DOPC   GL234072   1.119  13.304   7.012
 2901DOPC   C1A34073   0.989  13.724   6.832
 2901DOPC   D2A34074   1.129  13.774   6.522
 2901DOPC   C3A34075   0.919  13.654   6.112
 2901DOPC   C4A34076   0.739  13.574   5.822
 2901DOPC   C1B34077   1.099  12.924   6.662
 2901DOPC   D2B34078   1.149  12.634   6.302
 2901DOPC   C3B34079   1.339  12.864   5.892
 2901DOPC   C4B34080   1.409  12.924   5.492
 2902DOPC   NC334081   3.329  11.524  15.492
 2902DOPC   PO434082   2.809  11.504  15.342
 2902DOPC   GL134083   2.759  11.614  14.852
 2902DOPC   GL234084   2.799  11.974  14.802
 2902DOPC   C1A34085   3.019  11.634  14.402
 2902DOPC   D2A34086   3.039  11.604  14.002
 2902DOPC   C3A34087   3.189  11.174  13.772
 2902DOPC   C4A34088   3.449  11.014  13.412
 2902DOPC   C1B34089   2.739  12.044  14.362
 2902DOPC   D2B34090   2.609  11.984  13.972
 2902DOPC   C3B34091   2.879  11.854  13.542
 2902DOPC   C4B34092   3.039  11.554  13.352
 2903DOPC   NC334093   4.649  21.661  11.702
 2903DOPC   PO434094   4.929  21.254  11.602
 2903DOPC   GL134095   5.179  21.411  11.962
 2903DOPC   GL234096   5.309  21.214  12.192
 2903DOPC   C1A34097   5.379  21.681  12.202
 2903DOPC   D2A34098   5.449  21.881  12.572
 2903DOPC   C3A34099   5.269  21.811  12.942
 2903DOPC   C4A34100   4.899  22.141  13.042
 2903DOPC   C1B34101   4.949  20.994  12.372
 2903DOPC   D2B34102   4.879  20.534  12.672
 2903DOPC   C3B34103   4.579  20.594  13.012
 2903DOPC   C4B34104   4.479  20.534  13.432
 2904DOPC   NC334105   8.459  -0.096  11.022
 2904DOPC   PO434106   8.919  -0.016  11.102
 2904DOPC   GL134107   8.749   0.054  11.402
 2904DOPC   GL234108   8.929   0.304  11.672
 2904DOPC   C1A34109   8.499  -0.066  11.792
 2904DOPC   D2A34110   8.529  -0.206  12.202
 2904DOPC   C3A34111   8.749  -0.526  12.162
 2904DOPC   C4A34112   9.059  -0.766  11.852
 2904DOPC   C1B34113   8.869   0.274  12.022
 2904DOPC   D2B34114   8.849   0.314  12.412
 2904DOPC   C3B34115   8.659   0.504  12.842
 2904DOPC   C4B34116   8.199   0.634  13.102
 2905DOPC   NC334117   6.249  10.484   7.322
 2905DOPC   PO434118   6.709  10.614   7.262
 2905DOPC   GL134119   6.859  10.364   6.882
 2905DOPC   GL234120   6.809  10.064   6.712
 2905DOPC   C1A34121   7.139  10.334   6.442
 2905DOPC   D2A34122   7.389  10.034   6.172
 2905DOPC   C3A34123   7.139   9.764   6.312
 2905DOPC   C4A34124   6.769   9.604   6.212
 2905DOPC   C1B34125   6.809   9.564   6.682
 2905DOPC   D2B34126   6.609   9.204   6.522
 2905DOPC   C3B34127   6.309   9.284   6.242
 2905DOPC   C4B34128   6.149   9.264   5.802
 2906DOPC   NC334129   9.609   7.194  11.102
 2906DOPC   PO434130   9.329   6.854  11.092
 2906DOPC   GL134131   9.059   6.934  11.412
 2906DOPC   GL234132   8.979   7.244  11.422
 2906DOPC   C1A34133   9.079   6.764  11.742
 2906DOPC   D2A34134   9.149   6.274  11.782
 2906DOPC   C3A34135   8.759   6.214  11.842
 2906DOPC   C4A34136   8.439   6.124  11.642
 2906DOPC   C1B34137   9.329   7.194  11.792
 2906DOPC   D2B34138   9.519   7.144  12.202
 2906DOPC   C3B34139   9.359   6.914  12.532
 2906DOPC   C4B34140   9.369   6.484  12.492
 2907DOPC   NC334141  22.559  20.334  16.192
 2907DOPC   PO434142  22.909  20.174  16.482
 2907DOPC   GL134143  23.109  20.144  15.992
 2907DOPC   GL234144  22.959  20.384  15.802
 2907DOPC   C1A34145  23.199  19.774  15.652
 2907DOPC   D2A34146  23.149  19.714  15.212
 2907DOPC   C3A34147  23.489  20.024  15.082
 2907DOPC   C4A34148  23.609  20.264  14.802
 2907DOPC   C1B34149  22.839  20.124  15.482
 2907DOPC   D2B34150  22.549  20.044  15.242
 2907DOPC   C3B34151  22.809  19.894  14.862
 2907DOPC   C4B34152  23.099  19.694  14.652
 2908DOPC   NC334153  21.369   7.904  11.772
 2908DOPC   PO434154  21.829   7.894  11.802
 2908DOPC   GL134155  21.769   8.154  12.102
 2908DOPC   GL234156  21.469   8.264  12.122
 2908DOPC   C1A34157  21.639   8.074  12.532
 2908DOPC   D2A34158  21.269   8.174  12.932
 2908DOPC   C3A34159  21.059   8.234  13.212
 2908DOPC   C4A34160  20.769   8.044  13.312
 2908DOPC   C1B34161  21.389   8.514  12.602
 2908DOPC   D2B34162  21.129   8.824  12.852
 2908DOPC   C3B34163  20.829   8.704  13.252
 2908DOPC   C4B34164  20.469   8.444  13.352
 2909DOPC   NC334165   1.649  22.291  15.542
 2909DOPC   PO434166   1.199  22.081  15.512
 2909DOPC   GL134167   0.969  21.961  15.142
 2909DOPC   GL234168   1.099  22.121  14.892
 2909DOPC   C1A34169   0.789  21.731  14.822
 2909DOPC   D2A34170   0.499  21.731  14.472
 2909DOPC   C3A34171   0.689  21.881  14.072
 2909DOPC   C4A34172   0.709  21.681  13.702
 2909DOPC   C1B34173   1.409  21.981  14.642
 2909DOPC   D2B34174   1.659  21.551  14.522
 2909DOPC   C3B34175   1.759  21.471  14.042
 2909DOPC   C4B34176   1.649  21.411  13.562
 2910DOPC   NC334177  16.329  21.691  12.072
 2910DOPC   PO434178  16.749  21.631  11.922
 2910DOPC   GL134179  16.619  22.001  12.342
 2910DOPC   GL234180  16.419  21.721  12.562
 2910DOPC   C1A34181  16.509  22.441  12.552
 2910DOPC   D2A34182  16.609  22.871  12.722
 2910DOPC   C3A34183  16.589  23.241  13.052
 2910DOPC   C4A34184  16.389  23.121  13.382
 2910DOPC   C1B34185  16.609  21.971  12.832
 2910DOPC   D2B34186  16.579  22.351  13.052
 2910DOPC   C3B34187  16.749  22.751  13.272
 2910DOPC   C4B34188  16.899  23.121  13.442
 2911DOPC   NC334189  10.929   2.974  14.352
 2911DOPC   PO434190  11.119   3.404  14.252
 2911DOPC   GL134191  10.909   3.404  13.872
 2911DOPC   GL234192  10.689   3.144  13.892
 2911DOPC   C1A34193  10.749   3.414  13.452
 2911DOPC   D2A34194  10.969   3.244  13.102
 2911DOPC   C3A34195  11.089   3.654  12.872
 2911DOPC   C4A34196  11.049   3.824  12.482
 2911DOPC   C1B34197  11.019   3.054  13.582
 2911DOPC   D2B34198  10.899   2.754  13.182
 2911DOPC   C3B34199  11.279   2.824  12.822
 2911DOPC   C4B34200  11.649   2.874  12.782
 2912DOPC   NC334201  18.649  12.214  15.102
 2912DOPC   PO434202  18.969  12.544  15.232
 2912DOPC   GL134203  19.079  12.854  14.922
 2912DOPC   GL234204  19.069  13.244  14.972
 2912DOPC   C1A34205  19.189  12.914  14.482
 2912DOPC   D2A34206  19.199  13.124  14.172
 2912DOPC   C3A34207  19.589  13.164  13.972
 2912DOPC   C4A34208  19.799  13.594  13.822
 2912DOPC   C1B34209  19.299  13.454  14.572
 2912DOPC   D2B34210  19.239  13.734  14.292
 2912DOPC   C3B34211  19.439  13.984  13.952
 2912DOPC   C4B34212  19.479  14.384  13.772
 2913DOPC   NC334213  12.719   3.884  11.022
 2913DOPC   PO434214  12.699   4.334  10.962
 2913DOPC   GL134215  12.669   4.634  11.282
 2913DOPC   GL234216  12.839   4.434  11.522
 2913DOPC   C1A34217  12.549   5.024  11.522
 2913DOPC   D2A34218  12.279   5.124  11.922
 2913DOPC   C3A34219  12.389   4.984  12.352
 2913DOPC   C4A34220  12.219   5.184  12.792
 2913DOPC   C1B34221  12.799   4.264  11.872
 2913DOPC   D2B34222  12.379   4.094  12.172
 2913DOPC   C3B34223  12.489   3.744  12.442
 2913DOPC   C4B34224  12.729   3.694  12.752
 2914DOPC   NC334225   6.629   1.954  10.612
 2914DOPC   PO434226   6.809   2.054  10.932
 2914DOPC   GL134227   6.989   2.114  11.322
 2914DOPC   GL234228   6.929   1.764  11.442
 2914DOPC   C1A34229   6.809   2.184  11.752
 2914DOPC   D2A34230   6.889   2.154  12.242
 2914DOPC   C3A34231   6.949   1.734  12.412
 2914DOPC   C4A34232   7.199   1.544  12.582
 2914DOPC   C1B34233   7.009   1.714  11.902
 2914DOPC   D2B34234   7.299   1.914  12.162
 2914DOPC   C3B34235   7.439   2.384  12.102
 2914DOPC   C4B34236   7.429   2.854  12.172
 2915DOPC   NC334237   3.839  21.931  11.842
 2915DOPC   PO434238   4.219  21.721  11.922
 2915DOPC   GL134239   3.999  21.841  12.342
 2915DOPC   GL234240   4.059  22.051  12.582
 2915DOPC   C1A34241   4.139  21.591  12.722
 2915DOPC   D2A34242   4.269  21.344  13.032
 2915DOPC   C3A34243   4.129  21.074  13.202
 2915DOPC   C4A34244   3.709  21.124  13.442
 2915DOPC   C1B34245   4.169  21.961  13.042
 2915DOPC   D2B34246   4.529  21.971  13.302
 2915DOPC   C3B34247   4.739  22.271  13.502
 2915DOPC   C4B34248   4.689  22.551  13.652
 2916DOPC   NC334249   8.549   3.314  10.542
 2916DOPC   PO434250   8.649   3.784  10.552
 2916DOPC   GL134251   8.659   3.664  10.982
 2916DOPC   GL234252   8.459   3.434  11.182
 2916DOPC   C1A34253   8.849   3.594  11.452
 2916DOPC   D2A34254   9.039   3.574  11.872
 2916DOPC   C3A34255   9.039   3.314  12.232
 2916DOPC   C4A34256   9.399   2.954  12.222
 2916DOPC   C1B34257   8.399   3.124  11.542
 2916DOPC   D2B34258   8.369   2.794  11.852
 2916DOPC   C3B34259   8.279   2.834  12.302
 2916DOPC   C4B34260   8.449   2.954  12.682
 2917DOPC   NC334261   0.239   7.734  11.432
 2917DOPC   PO434262  -0.099   7.974  11.472
 2917DOPC   GL134263   0.049   7.814  11.892
 2917DOPC   GL234264  -0.209   7.974  12.152
 2917DOPC   C1A34265   0.099   7.684  12.442
 2917DOPC   D2A34266   0.079   7.324  12.742
 2917DOPC   C3A34267   0.519   7.124  12.912
 2917DOPC   C4A34268   0.799   7.194  13.102
 2917DOPC   C1B34269  -0.049   8.184  12.562
 2917DOPC   D2B34270   0.229   8.144  12.732
 2917DOPC   C3B34271   0.409   8.264  13.022
 2917DOPC   C4B34272   0.429   8.134  13.312
 2918DOPC   NC334273  22.339  24.081  16.422
 2918DOPC   PO434274  22.179  24.181  15.972
 2918DOPC   GL134275  22.159  24.361  15.582
 2918DOPC   GL234276  22.269  24.051  15.432
 2918DOPC   C1A34277  21.869  24.301  15.282
 2918DOPC   D2A34278  22.009  24.001  14.982
 2918DOPC   C3A34279  22.309  24.111  14.692
 2918DOPC   C4A34280  22.539  24.211  14.332
 2918DOPC   C1B34281  22.569  23.891  15.142
 2918DOPC   D2B34282  22.699  23.791  14.752
 2918DOPC   C3B34283  22.939  23.431  14.612
 2918DOPC   C4B34284  23.129  23.111  14.402
 2919DOPC   NC334285  25.229  12.884  15.552
 2919DOPC   PO434286  25.549  13.004  15.322
 2919DOPC   GL134287  25.936  13.074  15.042
 2919DOPC   GL234288  26.016  12.814  15.132
 2919DOPC   C1A34289  25.826  13.314  14.572
 2919DOPC   D2A34290  25.389  13.424  14.422
 2919DOPC   C3A34291  25.209  13.464  14.022
 2919DOPC   C4A34292  25.259  13.444  13.592
 2919DOPC   C1B34293  25.756  12.724  14.652
 2919DOPC   D2B34294  25.619  12.964  14.292
 2919DOPC   C3B34295  25.189  12.994  14.212
 2919DOPC   C4B34296  25.049  13.024  13.822
 2920DOPC   NC334297   5.799   8.404  11.052
 2920DOPC   PO434298   6.289   8.414  10.952
 2920DOPC   GL134299   6.299   8.524  11.392
 2920DOPC   GL234300   6.319   8.764  11.592
 2920DOPC   C1A34301   6.489   8.244  11.752
 2920DOPC   D2A34302   6.939   8.084  11.732
 2920DOPC   C3A34303   7.139   7.844  12.152
 2920DOPC   C4A34304   6.989   7.464  12.492
 2920DOPC   C1B34305   6.299   8.684  12.012
 2920DOPC   D2B34306   6.029   8.504  12.312
 2920DOPC   C3B34307   6.179   8.614  12.772
 2920DOPC   C4B34308   6.029   8.964  13.002
 2921DOPC   NC334309  12.949  12.474  14.122
 2921DOPC   PO434310  13.119  12.684  13.852
 2921DOPC   GL134311  13.019  12.914  13.682
 2921DOPC   GL234312  12.979  13.224  13.682
 2921DOPC   C1A34313  13.119  13.134  13.182
 2921DOPC   D2A34314  13.209  12.854  12.822
 2921DOPC   C3A34315  13.299  12.394  12.722
 2921DOPC   C4A34316  13.209  12.114  12.472
 2921DOPC   C1B34317  13.169  13.534  13.472
 2921DOPC   D2B34318  13.179  13.634  13.082
 2921DOPC   C3B34319  13.509  13.834  12.902
 2921DOPC   C4B34320  13.849  13.874  12.812
 2922DOPC   NC334321   3.869   1.894  11.142
 2922DOPC   PO434322   3.739   1.594  11.382
 2922DOPC   GL134323   3.559   1.874  11.672
 2922DOPC   GL234324   3.289   1.964  11.862
 2922DOPC   C1A34325   3.649   2.214  12.042
 2922DOPC   D2A34326   3.729   2.344  12.502
 2922DOPC   C3A34327   3.879   2.304  12.982
 2922DOPC   C4A34328   4.059   2.124  13.362
 2922DOPC   C1B34329   3.469   1.674  12.152
 2922DOPC   D2B34330   3.789   1.674  12.332
 2922DOPC   C3B34331   3.989   1.514  12.692
 2922DOPC   C4B34332   3.779   1.414  13.112
 2923DOPC   NC334333  20.669  17.684  16.152
 2923DOPC   PO434334  20.949  17.654  15.792
 2923DOPC   GL134335  20.729  17.604  15.412
 2923DOPC   GL234336  20.949  17.384  15.212
 2923DOPC   C1A34337  20.449  17.714  15.122
 2923DOPC   D2A34338  20.429  18.174  14.992
 2923DOPC   C3A34339  20.599  18.484  14.772
 2923DOPC   C4A34340  20.929  18.714  14.582
 2923DOPC   C1B34341  20.689  17.354  14.892
 2923DOPC   D2B34342  20.919  17.514  14.452
 2923DOPC   C3B34343  20.699  17.644  14.152
 2923DOPC   C4B34344  20.379  17.644  13.822
 2924DOPC   NC334345   5.489  11.504  15.062
 2924DOPC   PO434346   5.189  11.444  14.912
 2924DOPC   GL134347   5.069  11.414  14.482
 2924DOPC   GL234348   4.939  11.684  14.332
 2924DOPC   C1A34349   5.239  11.134  14.242
 2924DOPC   D2A34350   5.319  10.694  14.012
 2924DOPC   C3A34351   5.199  10.614  13.542
 2924DOPC   C4A34352   5.189  10.504  13.132
 2924DOPC   C1B34353   5.189  11.994  14.162
 2924DOPC   D2B34354   5.109  12.324  13.872
 2924DOPC   C3B34355   5.449  12.424  13.572
 2924DOPC   C4B34356   5.569  12.694  13.272
 2925DOPC   NC334357  14.159  23.131  11.462
 2925DOPC   PO434358  14.429  22.931  11.812
 2925DOPC   GL134359  14.409  22.721  12.232
 2925DOPC   GL234360  14.409  22.991  12.542
 2925DOPC   C1A34361  14.529  22.351  12.482
 2925DOPC   D2A34362  14.429  21.971  12.862
 2925DOPC   C3A34363  14.399  21.971  13.242
 2925DOPC   C4A34364  14.479  21.991  13.642
 2925DOPC   C1B34365  14.319  23.391  12.932
 2925DOPC   D2B34366  14.259  23.671  13.172
 2925DOPC   C3B34367  14.629  23.681  13.362
 2925DOPC   C4B34368  14.929  23.561  12.992
 2926DOPC   NC334369  18.669   8.814  14.932
 2926DOPC   PO434370  18.329   8.614  14.662
 2926DOPC   GL134371  18.499   8.954  14.452
 2926DOPC   GL234372  18.269   9.174  14.372
 2926DOPC   C1A34373  18.959   8.964  14.292
 2926DOPC   D2A34374  19.169   8.844  13.922
 2926DOPC   C3A34375  19.119   9.264  13.552
 2926DOPC   C4A34376  19.129   9.064  13.132
 2926DOPC   C1B34377  18.629   9.174  13.952
 2926DOPC   D2B34378  18.579   9.134  13.522
 2926DOPC   C3B34379  18.619   9.144  13.152
 2926DOPC   C4B34380  18.239   9.334  12.862
 2927DOPC   NC334381  19.009  12.984  15.432
 2927DOPC   PO434382  19.259  13.144  15.772
 2927DOPC   GL134383  19.459  13.194  15.372
 2927DOPC   GL234384  19.629  13.504  15.162
 2927DOPC   C1A34385  19.629  13.084  14.962
 2927DOPC   D2A34386  19.959  12.804  14.812
 2927DOPC   C3A34387  20.199  12.944  14.452
 2927DOPC   C4A34388  20.079  13.114  13.972
 2927DOPC   C1B34389  19.589  13.914  14.902
 2927DOPC   D2B34390  19.559  14.024  14.482
 2927DOPC   C3B34391  19.769  13.654  14.342
 2927DOPC   C4B34392  20.159  13.514  14.202
 2928DOPC   NC334393   7.319  12.844  15.412
 2928DOPC   PO434394   7.249  13.024  15.032
 2928DOPC   GL134395   7.079  12.884  14.562
 2928DOPC   GL234396   7.359  12.974  14.282
 2928DOPC   C1A34397   6.849  12.514  14.462
 2928DOPC   D2A34398   7.009  12.194  14.162
 2928DOPC   C3A34399   7.319  12.234  13.792
 2928DOPC   C4A34400   7.759  12.104  13.582
 2928DOPC   C1B34401   7.389  12.564  14.342
 2928DOPC   D2B34402   7.579  12.204  14.192
 2928DOPC   C3B34403   7.969  12.084  14.032
 2928DOPC   C4B34404   8.209  11.784  13.832
 2929DOPC   NC334405  17.279   4.324  10.812
 2929DOPC   PO434406  17.189   4.444  11.212
 2929DOPC   GL134407  17.059   4.434  11.592
 2929DOPC   GL234408  16.879   4.274  11.572
 2929DOPC   C1A34409  17.149   4.364  11.962
 2929DOPC   D2A34410  17.299   4.264  12.352
 2929DOPC   C3A34411  17.579   3.944  12.382
 2929DOPC   C4A34412  18.049   3.884  12.552
 2929DOPC   C1B34413  16.679   4.394  11.902
 2929DOPC   D2B34414  16.369   4.534  12.212
 2929DOPC   C3B34415  16.289   4.304  12.642
 2929DOPC   C4B34416  15.889   4.254  12.822
 2930DOPC   NC334417  19.759  11.274   8.212
 2930DOPC   PO434418  19.449  11.074   7.872
 2930DOPC   GL134419  19.489  11.454   7.542
 2930DOPC   GL234420  19.389  11.764   7.542
 2930DOPC   C1A34421  19.289  11.524   7.192
 2930DOPC   D2A34422  19.259  11.244   6.892
 2930DOPC   C3A34423  19.039  11.044   6.652
 2930DOPC   C4A34424  18.759  10.964   6.402
 2930DOPC   C1B34425  19.139  12.074   7.292
 2930DOPC   D2B34426  18.779  12.334   7.172
 2930DOPC   C3B34427  18.569  12.014   7.062
 2930DOPC   C4B34428  18.199  11.834   7.222
 2931DOPC   NC334429  17.599  11.834  14.952
 2931DOPC   PO434430  18.059  11.884  14.872
 2931DOPC   GL134431  18.219  12.184  14.532
 2931DOPC   GL234432  18.449  12.364  14.572
 2931DOPC   C1A34433  18.369  12.204  14.092
 2931DOPC   D2A34434  18.669  12.194  13.792
 2931DOPC   C3A34435  19.049  11.914  13.772
 2931DOPC   C4A34436  19.349  11.544  13.612
 2931DOPC   C1B34437  18.739  12.054  14.352
 2931DOPC   D2B34438  19.179  12.204  14.172
 2931DOPC   C3B34439  19.369  12.404  14.452
 2931DOPC   C4B34440  19.449  12.564  14.772
 2932DOPC   NC334441   4.689   7.464  11.622
 2932DOPC   PO434442   5.129   7.584  11.722
 2932DOPC   GL134443   4.949   7.444  12.112
 2932DOPC   GL234444   5.199   7.334  12.222
 2932DOPC   C1A34445   4.719   7.134  12.402
 2932DOPC   D2A34446   4.709   6.654  12.552
 2932DOPC   C3A34447   4.929   6.554  12.882
 2932DOPC   C4A34448   5.079   6.204  12.972
 2932DOPC   C1B34449   5.119   7.484  12.632
 2932DOPC   D2B34450   5.229   7.424  13.012
 2932DOPC   C3B34451   5.149   7.744  13.372
 2932DOPC   C4B34452   5.139   8.144  13.572
 2933DOPC   NC334453  14.769   3.084  14.912
 2933DOPC   PO434454  15.239   3.284  15.032
 2933DOPC   GL134455  15.249   3.374  14.692
 2933DOPC   GL234456  15.559   3.404  14.642
 2933DOPC   C1A34457  15.169   3.164  14.282
 2933DOPC   D2A34458  15.259   3.264  13.912
 2933DOPC   C3A34459  15.039   3.174  13.622
 2933DOPC   C4A34460  14.909   2.914  13.332
 2933DOPC   C1B34461  15.539   3.554  14.232
 2933DOPC   D2B34462  15.889   3.554  13.882
 2933DOPC   C3B34463  16.309   3.664  13.952
 2933DOPC   C4B34464  16.679   3.494  13.742
 2934DOPC   NC334465  19.719   4.014  11.542
 2934DOPC   PO434466  19.439   4.344  11.412
 2934DOPC   GL134467  19.309   4.254  11.872
 2934DOPC   GL234468  19.269   3.994  11.992
 2934DOPC   C1A34469  19.059   4.344  12.232
 2934DOPC   D2A34470  19.099   4.364  12.652
 2934DOPC   C3A34471  19.019   4.694  12.922
 2934DOPC   C4A34472  18.799   5.064  13.072
 2934DOPC   C1B34473  19.499   3.944  12.292
 2934DOPC   D2B34474  19.879   3.994  12.592
 2934DOPC   C3B34475  20.039   4.344  12.442
 2934DOPC   C4B34476  20.459   4.674  12.322
 2935DOPC   NC334477  10.399  18.064  14.722
 2935DOPC   PO434478  10.049  18.314  14.992
 2935DOPC   GL134479   9.979  18.164  14.462
 2935DOPC   GL234480  10.159  18.484  14.212
 2935DOPC   C1A34481   9.869  18.074  13.952
 2935DOPC   D2A34482   9.919  17.754  13.672
 2935DOPC   C3A34483   9.839  17.834  13.312
 2935DOPC   C4A34484  10.059  17.994  12.902
 2935DOPC   C1B34485   9.809  18.554  14.122
 2935DOPC   D2B34486   9.599  18.754  13.742
 2935DOPC   C3B34487   9.799  18.984  13.392
 2935DOPC   C4B34488  10.109  19.334  13.202
 2936DOPC   NC334489  22.799  11.484   7.852
 2936DOPC   PO434490  22.529  11.564   7.622
 2936DOPC   GL134491  22.439  11.654   7.172
 2936DOPC   GL234492  22.179  11.484   6.972
 2936DOPC   C1A34493  22.589  11.994   6.842
 2936DOPC   D2A34494  22.659  12.134   6.432
 2936DOPC   C3A34495  22.639  12.584   6.262
 2936DOPC   C4A34496  22.539  12.954   6.012
 2936DOPC   C1B34497  22.059  11.394   6.532
 2936DOPC   D2B34498  22.339  11.434   6.122
 2936DOPC   C3B34499  22.679  11.704   6.182
 2936DOPC   C4B34500  22.859  12.084   5.952
 2937DOPC   NC334501   5.859   0.384  11.192
 2937DOPC   PO434502   5.999   0.354  11.562
 2937DOPC   GL134503   6.039   0.544  11.972
 2937DOPC   GL234504   6.449   0.594  11.952
 2937DOPC   C1A34505   6.139   0.494  12.422
 2937DOPC   D2A34506   5.919   0.514  12.762
 2937DOPC   C3A34507   6.149   0.734  13.022
 2937DOPC   C4A34508   6.239   0.774  13.402
 2937DOPC   C1B34509   6.599   0.664  12.472
 2937DOPC   D2B34510   6.689   0.324  12.782
 2937DOPC   C3B34511   6.309   0.194  12.932
 2937DOPC   C4B34512   5.859   0.124  12.992
 2938DOPC   NC334513  17.359   2.514  11.542
 2938DOPC   PO434514  16.919   2.734  11.452
 2938DOPC   GL134515  17.049   2.824  11.892
 2938DOPC   GL234516  16.779   2.824  11.952
 2938DOPC   C1A34517  17.159   3.154  12.222
 2938DOPC   D2A34518  17.229   3.064  12.702
 2938DOPC   C3A34519  17.079   3.364  12.962
 2938DOPC   C4A34520  16.989   3.374  13.352
 2938DOPC   C1B34521  16.999   2.694  12.342
 2938DOPC   D2B34522  17.049   2.614  12.752
 2938DOPC   C3B34523  16.789   2.874  12.972
 2938DOPC   C4B34524  16.339   2.814  13.162
 2939DOPC   NC334525   3.049  21.541  15.472
 2939DOPC   PO434526   3.379  21.641  15.582
 2939DOPC   GL134527   3.439  21.701  15.182
 2939DOPC   GL234528   3.709  21.771  15.132
 2939DOPC   C1A34529   3.419  22.021  14.862
 2939DOPC   D2A34530   3.619  22.041  14.482
 2939DOPC   C3A34531   3.479  21.741  14.192
 2939DOPC   C4A34532   3.179  21.481  13.862
 2939DOPC   C1B34533   3.919  21.581  14.832
 2939DOPC   D2B34534   3.859  21.461  14.392
 2939DOPC   C3B34535   3.869  21.651  13.922
 2939DOPC   C4B34536   3.609  21.871  13.652
 2940DOPC   NC334537  13.899  10.484  10.162
 2940DOPC   PO434538  13.939  10.424  10.612
 2940DOPC   GL134539  14.039  10.384  11.032
 2940DOPC   GL234540  14.369  10.444  11.012
 2940DOPC   C1A34541  13.659  10.464  11.252
 2940DOPC   D2A34542  13.519  10.324  11.682
 2940DOPC   C3A34543  13.819  10.554  11.902
 2940DOPC   C4A34544  13.889  10.694  12.292
 2940DOPC   C1B34545  14.489  10.584  11.442
 2940DOPC   D2B34546  14.369  10.604  11.842
 2940DOPC   C3B34547  14.169  10.244  12.122
 2940DOPC   C4B34548  14.389   9.874  12.272
 2941DOPC   NC334549   3.449  16.264  15.342
 2941DOPC   PO434550   3.149  16.554  15.362
 2941DOPC   GL134551   2.869  16.324  15.032
 2941DOPC   GL234552   2.949  16.174  14.862
 2941DOPC   C1A34553   2.489  16.184  14.672
 2941DOPC   D2A34554   2.089  16.294  14.572
 2941DOPC   C3A34555   2.099  16.444  14.032
 2941DOPC   C4A34556   2.289  16.784  13.702
 2941DOPC   C1B34557   2.939  16.264  14.462
 2941DOPC   D2B34558   3.199  16.594  14.192
 2941DOPC   C3B34559   3.139  16.734  13.762
 2941DOPC   C4B34560   3.289  16.614  13.302
 2942DOPC   NC334561  22.569  12.304  11.852
 2942DOPC   PO434562  22.709  11.914  11.782
 2942DOPC   GL134563  22.469  11.864  12.202
 2942DOPC   GL234564  22.239  12.114  12.232
 2942DOPC   C1A34565  22.409  11.694  12.492
 2942DOPC   D2A34566  22.249  11.494  12.802
 2942DOPC   C3A34567  22.529  11.264  13.102
 2942DOPC   C4A34568  22.569  11.134  13.482
 2942DOPC   C1B34569  22.309  12.154  12.732
 2942DOPC   D2B34570  22.579  12.384  12.992
 2942DOPC   C3B34571  22.569  12.844  12.902
 2942DOPC   C4B34572  22.489  13.224  13.042
 2943DOPC   NC334573  25.499  17.104  12.152
 2943DOPC   PO434574  25.279  16.724  12.252
 2943DOPC   GL134575  25.479  16.444  12.552
 2943DOPC   GL234576  25.686  16.484  12.782
 2943DOPC   C1A34577  25.229  16.274  12.802
 2943DOPC   D2A34578  24.979  16.064  13.012
 2943DOPC   C3A34579  25.079  16.214  13.442
 2943DOPC   C4A34580  25.139  16.264  13.902
 2943DOPC   C1B34581  25.856  16.894  12.972
 2943DOPC   D2B34582  25.896  17.294  13.182
 2943DOPC   C3B34583  26.306  17.314  13.382
 2943DOPC   C4B34584  26.606  17.494  13.582
 2944DOPC   NC334585  19.309  24.501  15.662
 2944DOPC   PO434586  19.599  24.211  15.762
 2944DOPC   GL134587  19.499  24.011  15.442
 2944DOPC   GL234588  19.299  24.181  15.232
 2944DOPC   C1A34589  19.429  23.731  15.062
 2944DOPC   D2A34590  19.659  23.311  15.042
 2944DOPC   C3A34591  19.769  23.101  15.312
 2944DOPC   C4A34592  19.869  22.691  15.412
 2944DOPC   C1B34593  19.199  24.351  14.892
 2944DOPC   D2B34594  19.099  24.281  14.362
 2944DOPC   C3B34595  19.209  24.651  14.162
 2944DOPC   C4B34596  19.469  24.991  14.142
 2945DOPC   NC334597  16.529  24.901  12.162
 2945DOPC   PO434598  16.689  24.791  12.452
 2945DOPC   GL134599  16.869  24.761  12.862
 2945DOPC   GL234600  16.789  24.451  13.112
 2945DOPC   C1A34601  17.059  25.051  13.122
 2945DOPC   D2A34602  16.969  25.071  13.662
 2945DOPC   C3A34603  17.319  25.441  13.742
 2945DOPC   C4A34604  17.789  25.421  13.642
 2945DOPC   C1B34605  16.599  24.801  13.322
 2945DOPC   D2B34606  16.519  25.171  13.532
 2945DOPC   C3B34607  16.849  25.591  13.692
 2945DOPC   C4B34608  16.759  25.641  14.062
 2946DOPC   NC334609   3.339   2.404  15.432
 2946DOPC   PO434610   2.939   2.474  15.232
 2946DOPC   GL134611   3.029   2.194  14.842
 2946DOPC   GL234612   2.879   1.874  14.782
 2946DOPC   C1A34613   3.149   2.234  14.492
 2946DOPC   D2A34614   3.149   2.074  14.012
 2946DOPC   C3A34615   3.139   2.454  13.692
 2946DOPC   C4A34616   3.189   2.814  13.682
 2946DOPC   C1B34617   2.889   1.764  14.362
 2946DOPC   D2B34618   2.619   1.704  13.892
 2946DOPC   C3B34619   2.299   1.474  13.782
 2946DOPC   C4B34620   2.139   0.994  13.642
 2947DOPC   NC334621   2.769   8.714  11.062
 2947DOPC   PO434622   2.599   8.804  11.422
 2947DOPC   GL134623   2.559   8.824  12.002
 2947DOPC   GL234624   2.949   8.714  12.112
 2947DOPC   C1A34625   2.719   9.214  12.252
 2947DOPC   D2A34626   2.729   9.564  12.412
 2947DOPC   C3A34627   2.519   9.704  12.552
 2947DOPC   C4A34628   2.179   9.614  12.672
 2947DOPC   C1B34629   3.449   8.664  12.272
 2947DOPC   D2B34630   3.909   8.534  12.392
 2947DOPC   C3B34631   3.949   8.474  12.832
 2947DOPC   C4B34632   3.739   8.624  13.242
 2948DOPC   NC334633  23.269  11.064  11.312
 2948DOPC   PO434634  22.899  11.094  11.602
 2948DOPC   GL134635  22.729  10.824  12.022
 2948DOPC   GL234636  22.379  10.784  12.032
 2948DOPC   C1A34637  22.879  10.844  12.412
 2948DOPC   D2A34638  23.239  10.774  12.672
 2948DOPC   C3A34639  23.179  10.414  12.912
 2948DOPC   C4A34640  23.289  10.004  13.112
 2948DOPC   C1B34641  22.069  11.014  12.092
 2948DOPC   D2B34642  21.709  10.944  12.372
 2948DOPC   C3B34643  21.629  10.674  12.732
 2948DOPC   C4B34644  21.749  10.694  13.212
 2949DOPC   NC334645  14.959  20.224  15.302
 2949DOPC   PO434646  15.379  20.134  15.452
 2949DOPC   GL134647  15.369  20.114  15.012
 2949DOPC   GL234648  15.059  19.884  14.922
 2949DOPC   C1A34649  15.509  20.104  14.692
 2949DOPC   D2A34650  15.719  19.904  14.282
 2949DOPC   C3A34651  15.669  20.074  13.932
 2949DOPC   C4A34652  15.739  20.404  13.552
 2949DOPC   C1B34653  15.009  20.144  14.482
 2949DOPC   D2B34654  14.879  20.244  14.122
 2949DOPC   C3B34655  14.939  19.814  13.712
 2949DOPC   C4B34656  14.979  19.404  13.552
 2950DOPC   NC334657   1.499  24.031  15.672
 2950DOPC   PO434658   1.749  23.601  15.572
 2950DOPC   GL134659   1.699  23.811  15.282
 2950DOPC   GL234660   1.879  24.061  15.172
 2950DOPC   C1A34661   1.489  23.891  14.862
 2950DOPC   D2A34662   1.249  23.761  14.622
 2950DOPC   C3A34663   1.149  23.411  14.622
 2950DOPC   C4A34664   1.279  23.011  14.722
 2950DOPC   C1B34665   1.979  23.691  14.882
 2950DOPC   D2B34666   1.869  23.721  14.392
 2950DOPC   C3B34667   2.239  23.821  14.152
 2950DOPC   C4B34668   2.489  23.831  13.812
 2951DOPC   NC334669  21.719   2.384  12.002
 2951DOPC   PO434670  21.459   2.114  12.252
 2951DOPC   GL134671  21.549   2.164  12.702
 2951DOPC   GL234672  21.849   2.114  12.922
 2951DOPC   C1A34673  21.389   2.134  13.122
 2951DOPC   D2A34674  21.409   2.094  13.562
 2951DOPC   C3A34675  21.819   2.334  13.782
 2951DOPC   C4A34676  22.139   2.474  13.592
 2951DOPC   C1B34677  21.859   2.204  13.302
 2951DOPC   D2B34678  22.079   1.964  13.532
 2951DOPC   C3B34679  22.499   2.154  13.562
 2951DOPC   C4B34680  22.579   2.594  13.852
 2952DOPC   NC334681  14.729  23.851  11.932
 2952DOPC   PO434682  14.439  24.041  11.722
 2952DOPC   GL134683  14.249  24.081  12.042
 2952DOPC   GL234684  14.289  23.821  12.162
 2952DOPC   C1A34685  14.199  24.221  12.462
 2952DOPC   D2A34686  14.159  24.201  12.842
 2952DOPC   C3A34687  13.859  24.331  13.012
 2952DOPC   C4A34688  13.419  24.271  13.172
 2952DOPC   C1B34689  14.489  23.701  12.612
 2952DOPC   D2B34690  14.789  23.271  12.602
 2952DOPC   C3B34691  14.719  23.071  13.042
 2952DOPC   C4B34692  14.659  22.841  13.462
 2953DOPC   NC334693  17.209  20.384  11.332
 2953DOPC   PO434694  16.919  20.244  11.512
 2953DOPC   GL134695  17.219  20.254  11.882
 2953DOPC   GL234696  17.129  19.874  11.982
 2953DOPC   C1A34697  17.299  20.154  12.352
 2953DOPC   D2A34698  17.169  20.314  12.722
 2953DOPC   C3A34699  16.899  20.514  13.032
 2953DOPC   C4A34700  16.509  20.774  12.972
 2953DOPC   C1B34701  16.849  20.144  12.172
 2953DOPC   D2B34702  16.459  20.124  12.292
 2953DOPC   C3B34703  16.189  19.984  12.582
 2953DOPC   C4B34704  15.839  19.684  12.702
 2954DOPC   NC334705  23.999  25.951  16.522
 2954DOPC   PO434706  23.849  25.731  16.212
 2954DOPC   GL134707  23.909  25.711  15.712
 2954DOPC   GL234708  24.119  25.481  15.662
 2954DOPC   C1A34709  23.969  25.721  15.242
 2954DOPC   D2A34710  24.109  25.371  14.922
 2954DOPC   C3A34711  24.139  25.461  14.472
 2954DOPC   C4A34712  23.899  25.271  14.122
 2954DOPC   C1B34713  23.959  25.241  15.422
 2954DOPC   D2B34714  23.959  24.821  15.462
 2954DOPC   C3B34715  23.739  24.571  15.042
 2954DOPC   C4B34716  23.789  24.511  14.592
 2955DOPC   NC334717   1.309  23.161  11.982
 2955DOPC   PO434718   0.939  23.461  11.842
 2955DOPC   GL134719   0.909  23.421  12.352
 2955DOPC   GL234720   0.759  23.131  12.672
 2955DOPC   C1A34721   1.189  23.231  12.762
 2955DOPC   D2A34722   1.419  23.121  13.132
 2955DOPC   C3A34723   1.619  22.751  13.062
 2955DOPC   C4A34724   1.559  22.461  12.752
 2955DOPC   C1B34725   0.809  23.371  13.032
 2955DOPC   D2B34726   1.109  23.431  13.362
 2955DOPC   C3B34727   1.309  23.621  13.672
 2955DOPC   C4B34728   1.849  23.681  13.822
 2956DOPC   NC334729   3.209  10.424  11.272
 2956DOPC   PO434730   3.479  10.734  11.472
 2956DOPC   GL134731   3.669  10.694  11.872
 2956DOPC   GL234732   3.799  10.494  12.012
 2956DOPC   C1A34733   3.779  11.064  12.202
 2956DOPC   D2A34734   4.099  11.124  12.502
 2956DOPC   C3A34735   4.119  10.924  12.852
 2956DOPC   C4A34736   4.339  10.674  13.162
 2956DOPC   C1B34737   4.089  10.604  12.272
 2956DOPC   D2B34738   4.489  10.704  12.462
 2956DOPC   C3B34739   4.769  10.614  12.852
 2956DOPC   C4B34740   4.829  10.864  13.292
 2957DOPC   NC334741  17.959  24.701  11.862
 2957DOPC   PO434742  17.939  24.901  12.202
 2957DOPC   GL134743  17.659  24.831  12.552
 2957DOPC   GL234744  17.299  24.931  12.702
 2957DOPC   C1A34745  17.749  24.791  12.982
 2957DOPC   D2A34746  17.559  25.071  13.272
 2957DOPC   C3A34747  17.549  24.831  13.652
 2957DOPC   C4A34748  17.529  24.451  13.962
 2957DOPC   C1B34749  17.309  24.641  13.142
 2957DOPC   D2B34750  17.109  24.531  13.562
 2957DOPC   C3B34751  16.699  24.341  13.592
 2957DOPC   C4B34752  16.349  24.071  13.742
 2958DOPC   NC334753  13.139  15.174  10.262
 2958DOPC   PO434754  13.019  15.004  10.592
 2958DOPC   GL134755  13.269  15.014  10.932
 2958DOPC   GL234756  13.409  15.144  11.262
 2958DOPC   C1A34757  13.229  14.724  11.232
 2958DOPC   D2A34758  13.369  14.614  11.692
 2958DOPC   C3A34759  13.329  14.354  12.052
 2958DOPC   C4A34760  13.049  14.234  12.322
 2958DOPC   C1B34761  13.189  15.114  11.662
 2958DOPC   D2B34762  13.309  15.154  12.092
 2958DOPC   C3B34763  13.449  15.444  12.402
 2958DOPC   C4B34764  13.649  15.824  12.362
 2959DOPC   NC334765  22.509  22.031  15.922
 2959DOPC   PO434766  22.399  21.661  15.902
 2959DOPC   GL134767  22.189  21.641  15.542
 2959DOPC   GL234768  21.799  21.691  15.582
 2959DOPC   C1A34769  22.149  21.791  15.162
 2959DOPC   D2A34770  22.229  22.121  14.932
 2959DOPC   C3A34771  21.949  22.461  15.032
 2959DOPC   C4A34772  21.969  22.661  15.422
 2959DOPC   C1B34773  21.509  21.921  15.332
 2959DOPC   D2B34774  21.119  22.261  15.342
 2959DOPC   C3B34775  20.729  22.231  15.472
 2959DOPC   C4B34776  20.479  21.991  15.262
 2960DOPC   NC334777  13.919  19.014  15.082
 2960DOPC   PO434778  14.179  19.344  14.962
 2960DOPC   GL134779  14.419  19.374  14.572
 2960DOPC   GL234780  14.779  19.484  14.552
 2960DOPC   C1A34781  14.259  19.544  14.242
 2960DOPC   D2A34782  14.149  19.424  13.812
 2960DOPC   C3A34783  14.469  19.544  13.602
 2960DOPC   C4A34784  14.459  19.664  13.242
 2960DOPC   C1B34785  15.009  19.714  14.302
 2960DOPC   D2B34786  15.319  19.724  14.052
 2960DOPC   C3B34787  15.439  19.724  13.552
 2960DOPC   C4B34788  15.609  19.724  13.142
 2961DOPC   NC334789  16.319  12.004  10.302
 2961DOPC   PO434790  16.699  11.834  10.532
 2961DOPC   GL134791  16.499  11.754  10.832
 2961DOPC   GL234792  16.139  11.814  10.732
 2961DOPC   C1A34793  16.579  11.644  11.252
 2961DOPC   D2A34794  16.429  11.444  11.652
 2961DOPC   C3A34795  16.119  11.144  11.712
 2961DOPC   C4A34796  15.669  11.174  11.732
 2961DOPC   C1B34797  16.139  12.064  11.142
 2961DOPC   D2B34798  16.229  11.984  11.622
 2961DOPC   C3B34799  16.619  11.894  11.812
 2961DOPC   C4B34800  17.009  11.904  12.142
 2962DOPC   NC334801   5.969   9.864  10.992
 2962DOPC   PO434802   6.399   9.764  11.122
 2962DOPC   GL134803   6.239   9.674  11.472
 2962DOPC   GL234804   6.059   9.914  11.642
 2962DOPC   C1A34805   6.529   9.764  11.782
 2962DOPC   D2A34806   6.479   9.994  12.232
 2962DOPC   C3A34807   6.409  10.504  12.212
 2962DOPC   C4A34808   6.239  10.724  12.532
 2962DOPC   C1B34809   6.099  10.174  11.932
 2962DOPC   D2B34810   5.929  10.564  12.052
 2962DOPC   C3B34811   5.759  10.994  11.962
 2962DOPC   C4B34812   5.539  11.314  11.972
 2963DOPC   NC334813  16.649   1.574  11.472
 2963DOPC   PO434814  16.909   1.784  11.822
 2963DOPC   GL134815  16.899   2.024  12.042
 2963DOPC   GL234816  17.169   2.254  12.022
 2963DOPC   C1A34817  16.629   2.254  12.362
 2963DOPC   D2A34818  16.489   2.704  12.392
 2963DOPC   C3A34819  16.369   2.904  12.702
 2963DOPC   C4A34820  16.069   2.494  12.902
 2963DOPC   C1B34821  17.469   2.644  12.232
 2963DOPC   D2B34822  17.579   2.654  12.672
 2963DOPC   C3B34823  17.439   2.394  12.982
 2963DOPC   C4B34824  17.049   2.544  13.332
 2964DOPC   NC334825   3.589  23.691  11.402
 2964DOPC   PO434826   3.619  23.341  11.602
 2964DOPC   GL134827   3.519  23.371  12.052
 2964DOPC   GL234828   3.289  23.111  12.202
 2964DOPC   C1A34829   3.599  23.641  12.452
 2964DOPC   D2A34830   3.549  24.041  12.872
 2964DOPC   C3A34831   3.639  24.311  13.222
 2964DOPC   C4A34832   3.959  24.361  13.512
 2964DOPC   C1B34833   2.919  23.071  12.462
 2964DOPC   D2B34834   2.529  22.831  12.402
 2964DOPC   C3B34835   2.319  22.601  12.652
 2964DOPC   C4B34836   2.389  22.221  12.872
 2965DOPC   NC334837  23.459  22.861  12.542
 2965DOPC   PO434838  23.109  22.621  12.532
 2965DOPC   GL134839  23.279  22.631  12.962
 2965DOPC   GL234840  23.409  22.971  13.042
 2965DOPC   C1A34841  23.209  22.351  13.272
 2965DOPC   D2A34842  23.059  22.391  13.672
 2965DOPC   C3A34843  22.959  22.151  13.912
 2965DOPC   C4A34844  22.569  21.961  13.782
 2965DOPC   C1B34845  23.209  22.811  13.532
 2965DOPC   D2B34846  22.959  22.841  13.922
 2965DOPC   C3B34847  22.509  22.871  13.792
 2965DOPC   C4B34848  22.139  22.891  13.982
 2966DOPC   NC334849  18.399  16.934  15.482
 2966DOPC   PO434850  18.019  16.754  15.462
 2966DOPC   GL134851  18.139  16.814  15.042
 2966DOPC   GL234852  17.799  16.794  14.952
 2966DOPC   C1A34853  18.239  16.604  14.692
 2966DOPC   D2A34854  18.179  16.514  14.202
 2966DOPC   C3A34855  18.339  16.194  13.912
 2966DOPC   C4A34856  18.759  16.074  13.922
 2966DOPC   C1B34857  17.779  16.524  14.602
 2966DOPC   D2B34858  17.709  16.604  14.162
 2966DOPC   C3B34859  17.879  16.874  13.912
 2966DOPC   C4B34860  17.719  17.174  13.592
 2967DOPC   NC334861  17.619   7.714   8.082
 2967DOPC   PO434862  17.119   7.574   8.072
 2967DOPC   GL134863  17.329   7.834   7.732
 2967DOPC   GL234864  17.589   7.584   7.622
 2967DOPC   C1A34865  17.499   8.164   7.392
 2967DOPC   D2A34866  17.739   7.964   7.042
 2967DOPC   C3A34867  17.919   8.074   6.682
 2967DOPC   C4A34868  17.829   8.034   6.222
 2967DOPC   C1B34869  17.329   7.664   7.202
 2967DOPC   D2B34870  17.429   7.554   6.842
 2967DOPC   C3B34871  17.839   7.514   6.602
 2967DOPC   C4B34872  17.889   7.414   6.162
 2968DOPC   NC334873  20.859  19.804  12.262
 2968DOPC   PO434874  20.629  19.464  12.212
 2968DOPC   GL134875  20.519  19.434  12.592
 2968DOPC   GL234876  20.599  19.194  12.832
 2968DOPC   C1A34877  20.299  19.654  12.932
 2968DOPC   D2A34878  20.069  19.764  13.322
 2968DOPC   C3A34879  20.289  20.014  13.522
 2968DOPC   C4A34880  20.239  20.494  13.442
 2968DOPC   C1B34881  20.409  19.214  13.222
 2968DOPC   D2B34882  20.159  19.344  13.602
 2968DOPC   C3B34883  20.219  19.674  13.902
 2968DOPC   C4B34884  20.319  19.494  14.382
 2969DOPC   NC334885  19.129  12.294  11.632
 2969DOPC   PO434886  19.489  12.424  11.922
 2969DOPC   GL134887  19.109  12.484  12.212
 2969DOPC   GL234888  19.209  12.384  12.422
 2969DOPC   C1A34889  18.839  12.734  12.522
 2969DOPC   D2A34890  18.729  13.024  12.872
 2969DOPC   C3A34891  18.419  13.094  13.132
 2969DOPC   C4A34892  18.209  13.004  13.512
 2969DOPC   C1B34893  19.129  12.474  12.822
 2969DOPC   D2B34894  19.109  12.704  13.222
 2969DOPC   C3B34895  19.499  12.964  13.492
 2969DOPC   C4B34896  19.889  13.154  13.512
 2970DOPC   NC334897  10.269  22.901  11.162
 2970DOPC   PO434898  10.529  22.611  11.152
 2970DOPC   GL134899  10.519  22.611  11.592
 2970DOPC   GL234900  10.719  22.851  11.822
 2970DOPC   C1A34901  10.459  22.461  11.932
 2970DOPC   D2A34902  10.489  22.421  12.312
 2970DOPC   C3A34903  10.389  22.071  12.512
 2970DOPC   C4A34904  10.539  21.951  12.902
 2970DOPC   C1B34905  10.799  22.851  12.222
 2970DOPC   D2B34906  10.679  22.781  12.692
 2970DOPC   C3B34907  10.649  23.101  12.882
 2970DOPC   C4B34908  10.699  23.421  13.232
 2971DOPC   NC334909  14.119  22.361  11.922
 2971DOPC   PO434910  13.949  22.751  11.712
 2971DOPC   GL134911  13.939  23.001  12.152
 2971DOPC   GL234912  14.139  23.331  12.072
 2971DOPC   C1A34913  13.869  22.901  12.552
 2971DOPC   D2A34914  14.189  22.541  12.822
 2971DOPC   C3A34915  14.629  22.521  12.932
 2971DOPC   C4A34916  14.919  22.601  12.642
 2971DOPC   C1B34917  14.059  23.451  12.472
 2971DOPC   D2B34918  13.799  23.861  12.622
 2971DOPC   C3B34919  13.709  23.781  13.082
 2971DOPC   C4B34920  13.419  23.541  13.372
 2972DOPC   NC334921  14.709  21.921  11.762
 2972DOPC   PO434922  14.999  22.311  11.732
 2972DOPC   GL134923  14.929  22.191  12.152
 2972DOPC   GL234924  15.189  22.191  12.472
 2972DOPC   C1A34925  14.829  21.881  12.452
 2972DOPC   D2A34926  14.799  21.411  12.682
 2972DOPC   C3A34927  14.939  21.074  12.462
 2972DOPC   C4A34928  15.109  20.724  12.542
 2972DOPC   C1B34929  15.019  22.121  12.852
 2972DOPC   D2B34930  14.859  21.811  13.182
 2972DOPC   C3B34931  14.799  21.661  13.582
 2972DOPC   C4B34932  14.469  21.354  13.652
 2973DOPC   NC334933   6.719  11.194  11.052
 2973DOPC   PO434934   6.479  11.434  11.302
 2973DOPC   GL134935   6.509  11.714  11.702
 2973DOPC   GL234936   6.649  12.034  11.692
 2973DOPC   C1A34937   6.629  11.594  12.102
 2973DOPC   D2A34938   6.639  11.674  12.472
 2973DOPC   C3A34939   6.349  12.024  12.662
 2973DOPC   C4A34940   6.159  12.024  13.012
 2973DOPC   C1B34941   6.549  12.194  12.122
 2973DOPC   D2B34942   6.769  12.264  12.532
 2973DOPC   C3B34943   6.679  12.204  13.002
 2973DOPC   C4B34944   6.449  12.444  13.282
 2974DOPC   NC334945  20.109   5.604  15.052
 2974DOPC   PO434946  19.959   5.994  15.122
 2974DOPC   GL134947  20.029   5.894  14.662
 2974DOPC   GL234948  19.719   5.964  14.522
 2974DOPC   C1A34949  20.029   5.724  14.172
 2974DOPC   D2A34950  20.219   5.674  13.722
 2974DOPC   C3A34951  19.929   5.834  13.502
 2974DOPC   C4A34952  19.529   5.754  13.512
 2974DOPC   C1B34953  20.019   6.344  14.412
 2974DOPC   D2B34954  20.119   6.564  14.052
 2974DOPC   C3B34955  20.339   7.014  14.062
 2974DOPC   C4B34956  20.319   7.524  14.112
 2975DOPC   NC334957  20.859  20.394  16.012
 2975DOPC   PO434958  21.139  20.034  15.852
 2975DOPC   GL134959  21.289  19.734  15.502
 2975DOPC   GL234960  20.979  19.764  15.382
 2975DOPC   C1A34961  21.429  19.854  15.082
 2975DOPC   D2A34962  21.549  19.514  14.712
 2975DOPC   C3A34963  21.739  19.124  14.762
 2975DOPC   C4A34964  21.859  18.864  14.462
 2975DOPC   C1B34965  20.959  20.004  15.012
 2975DOPC   D2B34966  20.729  19.954  14.652
 2975DOPC   C3B34967  20.799  19.964  14.302
 2975DOPC   C4B34968  20.659  19.994  13.902
 2976DOPC   NC334969   8.939  22.001  10.792
 2976DOPC   PO434970   9.199  22.191  11.102
 2976DOPC   GL134971   9.309  22.151  11.552
 2976DOPC   GL234972   9.439  21.851  11.592
 2976DOPC   C1A34973   9.369  22.191  11.972
 2976DOPC   D2A34974   9.589  22.251  12.382
 2976DOPC   C3A34975   9.509  22.191  12.812
 2976DOPC   C4A34976   9.329  21.991  13.192
 2976DOPC   C1B34977   9.469  21.381  11.742
 2976DOPC   D2B34978   9.449  21.134  12.152
 2976DOPC   C3B34979   9.399  21.334  12.502
 2976DOPC   C4B34980   9.349  21.651  12.632
 2977DOPC   NC334981  13.969  21.304  11.542
 2977DOPC   PO434982  13.639  21.284  11.542
 2977DOPC   GL134983  13.449  21.004  11.872
 2977DOPC   GL234984  13.219  20.804  11.792
 2977DOPC   C1A34985  13.299  20.944  12.312
 2977DOPC   D2A34986  13.559  20.664  12.592
 2977DOPC   C3A34987  13.939  20.724  12.792
 2977DOPC   C4A34988  14.189  20.974  12.992
 2977DOPC   C1B34989  13.069  20.524  12.112
 2977DOPC   D2B34990  12.979  20.614  12.502
 2977DOPC   C3B34991  12.909  21.074  12.712
 2977DOPC   C4B34992  12.639  21.361  12.712
 2978DOPC   NC334993  14.549  16.504  11.372
 2978DOPC   PO434994  14.299  16.324  11.222
 2978DOPC   GL134995  14.419  16.044  11.562
 2978DOPC   GL234996  14.389  16.354  11.862
 2978DOPC   C1A34997  14.599  15.774  11.792
 2978DOPC   D2A34998  14.659  15.294  11.662
 2978DOPC   C3A34999  14.989  15.054  11.572
 2978DOPC   C4A35000  15.449  15.224  11.582
 2978DOPC   C1B35001  14.649  16.084  12.172
 2978DOPC   D2B35002  14.689  15.964  12.572
 2978DOPC   C3B35003  14.979  16.024  12.852
 2978DOPC   C4B35004  15.209  16.064  13.232
 2979DOPC   NC335005  15.019  14.254   9.162
 2979DOPC   PO435006  15.469  14.074   9.062
 2979DOPC   GL135007  15.079  13.984   8.702
 2979DOPC   GL235008  14.899  14.194   8.662
 2979DOPC   C1A35009  14.909  13.894   8.232
 2979DOPC   D2A35010  14.659  13.794   7.872
 2979DOPC   C3A35011  14.419  13.604   8.132
 2979DOPC   C4A35012  14.129  13.584   8.602
 2979DOPC   C1B35013  14.559  14.244   8.262
 2979DOPC   D2B35014  14.329  14.144   7.962
 2979DOPC   C3B35015  14.079  13.904   7.712
 2979DOPC   C4B35016  13.759  14.074   7.512
 2980DOPC   NC335017  21.059  16.664  11.802
 2980DOPC   PO435018  21.359  16.604  12.272
 2980DOPC   GL135019  21.439  16.844  12.652
 2980DOPC   GL235020  21.769  16.994  12.742
 2980DOPC   C1A35021  21.389  17.184  12.902
 2980DOPC   D2A35022  21.409  17.424  13.272
 2980DOPC   C3A35023  21.299  17.254  13.592
 2980DOPC   C4A35024  21.069  17.314  13.992
 2980DOPC   C1B35025  21.859  17.254  13.142
 2980DOPC   D2B35026  21.819  17.614  13.462
 2980DOPC   C3B35027  22.229  17.714  13.422
 2980DOPC   C4B35028  22.479  18.024  13.242
 2981DOPC   NC335029  12.719  24.191  11.632
 2981DOPC   PO435030  12.309  24.461  11.452
 2981DOPC   GL135031  12.509  24.641  11.812
 2981DOPC   GL235032  12.519  24.401  12.102
 2981DOPC   C1A35033  12.689  24.851  12.142
 2981DOPC   D2A35034  12.809  25.051  12.612
 2981DOPC   C3A35035  12.579  24.801  13.002
 2981DOPC   C4A35036  12.509  24.821  13.462
 2981DOPC   C1B35037  12.659  24.561  12.502
 2981DOPC   D2B35038  12.939  24.561  12.752
 2981DOPC   C3B35039  13.099  24.871  13.052
 2981DOPC   C4B35040  12.809  25.151  13.262
 2982DOPC   NC335041  15.709   9.464  10.442
 2982DOPC   PO435042  15.799   9.844  10.752
 2982DOPC   GL135043  16.069  10.014  11.102
 2982DOPC   GL235044  16.159  10.304  10.952
 2982DOPC   C1A35045  15.999  10.054  11.572
 2982DOPC   D2A35046  15.799  10.114  11.912
 2982DOPC   C3A35047  15.909  10.074  12.352
 2982DOPC   C4A35048  16.139   9.904  12.742
 2982DOPC   C1B35049  16.309  10.464  11.372
 2982DOPC   D2B35050  16.269  10.374  11.852
 2982DOPC   C3B35051  16.769  10.264  12.052
 2982DOPC   C4B35052  17.209  10.304  12.112
 2983DOPC   NC335053  15.869  20.524  16.042
 2983DOPC   PO435054  16.069  20.804  15.672
 2983DOPC   GL135055  16.039  20.914  15.262
 2983DOPC   GL235056  16.369  20.874  15.022
 2983DOPC   C1A35057  15.959  20.854  14.662
 2983DOPC   D2A35058  15.939  20.504  14.302
 2983DOPC   C3A35059  16.129  20.464  13.882
 2983DOPC   C4A35060  16.449  20.344  13.792
 2983DOPC   C1B35061  16.409  20.624  14.652
 2983DOPC   D2B35062  16.499  20.454  14.272
 2983DOPC   C3B35063  16.589  20.054  14.192
 2983DOPC   C4B35064  16.519  19.654  14.092
 2984DOPC   NC335065   4.559  12.044  14.642
 2984DOPC   PO435066   4.799  11.734  14.832
 2984DOPC   GL135067   4.589  11.444  14.592
 2984DOPC   GL235068   4.289  11.224  14.512
 2984DOPC   C1A35069   4.729  11.104  14.222
 2984DOPC   D2A35070   4.339  10.684  14.152
 2984DOPC   C3A35071   4.219  10.444  13.712
 2984DOPC   C4A35072   4.069  10.184  13.272
 2984DOPC   C1B35073   4.149  11.154  14.072
 2984DOPC   D2B35074   3.849  11.204  13.822
 2984DOPC   C3B35075   3.879  10.824  13.492
 2984DOPC   C4B35076   3.629  10.624  13.142
 2985DOPC   NC335077  14.399   7.694  14.892
 2985DOPC   PO435078  14.299   8.034  14.772
 2985DOPC   GL135079  14.469   7.924  14.312
 2985DOPC   GL235080  14.259   7.814  14.152
 2985DOPC   C1A35081  14.679   7.864  13.862
 2985DOPC   D2A35082  14.839   7.664  13.462
 2985DOPC   C3A35083  14.879   7.264  13.372
 2985DOPC   C4A35084  14.579   6.904  13.072
 2985DOPC   C1B35085  14.389   7.474  13.792
 2985DOPC   D2B35086  14.379   7.484  13.302
 2985DOPC   C3B35087  14.179   7.224  13.162
 2985DOPC   C4B35088  13.989   6.824  12.982
 2986DOPC   NC335089   1.679  16.994  11.702
 2986DOPC   PO435090   1.799  17.434  11.562
 2986DOPC   GL135091   1.889  17.354  12.062
 2986DOPC   GL235092   1.639  17.174  12.232
 2986DOPC   C1A35093   2.069  17.394  12.442
 2986DOPC   D2A35094   2.419  17.514  12.682
 2986DOPC   C3A35095   2.219  17.404  13.022
 2986DOPC   C4A35096   2.269  16.984  13.222
 2986DOPC   C1B35097   1.699  17.104  12.672
 2986DOPC   D2B35098   1.769  17.114  13.182
 2986DOPC   C3B35099   1.879  16.904  13.482
 2986DOPC   C4B35100   1.779  16.834  13.842
 2987DOPC   NC335101  18.279  19.834  11.632
 2987DOPC   PO435102  18.349  19.884  12.142
 2987DOPC   GL135103  18.349  19.904  12.492
 2987DOPC   GL235104  18.169  19.684  12.622
 2987DOPC   C1A35105  18.199  20.154  12.892
 2987DOPC   D2A35106  18.129  20.164  13.372
 2987DOPC   C3A35107  18.549  20.134  13.542
 2987DOPC   C4A35108  18.929  19.784  13.492
 2987DOPC   C1B35109  18.109  19.724  13.032
 2987DOPC   D2B35110  18.029  19.444  13.312
 2987DOPC   C3B35111  17.629  19.334  13.622
 2987DOPC   C4B35112  17.399  19.364  14.012
 2988DOPC   NC335113  14.409  17.724  15.102
 2988DOPC   PO435114  14.899  17.864  14.972
 2988DOPC   GL135115  14.729  17.904  14.612
 2988DOPC   GL235116  14.649  18.254  14.632
 2988DOPC   C1A35117  14.589  17.964  14.252
 2988DOPC   D2A35118  14.629  17.804  13.812
 2988DOPC   C3A35119  14.539  17.964  13.422
 2988DOPC   C4A35120  14.579  18.304  13.272
 2988DOPC   C1B35121  14.919  18.574  14.432
 2988DOPC   D2B35122  15.139  18.754  14.142
 2988DOPC   C3B35123  14.929  19.094  13.982
 2988DOPC   C4B35124  14.729  19.424  14.022
 2989DOPC   NC335125  20.629   3.124  11.292
 2989DOPC   PO435126  20.299   3.014  11.602
 2989DOPC   GL135127  20.409   3.114  11.962
 2989DOPC   GL235128  20.559   2.984  12.132
 2989DOPC   C1A35129  20.609   3.474  12.382
 2989DOPC   D2A35130  20.809   3.704  12.652
 2989DOPC   C3A35131  20.649   3.914  13.002
 2989DOPC   C4A35132  20.789   3.814  13.422
 2989DOPC   C1B35133  20.629   2.994  12.572
 2989DOPC   D2B35134  20.889   3.084  12.972
 2989DOPC   C3B35135  20.649   3.144  13.302
 2989DOPC   C4B35136  20.479   3.494  13.222
 2990DOPC   NC335137   2.749   0.924  11.712
 2990DOPC   PO435138   2.319   0.954  11.602
 2990DOPC   GL135139   2.509   0.974  12.132
 2990DOPC   GL235140   2.169   1.104  12.342
 2990DOPC   C1A35141   2.759   1.244  12.362
 2990DOPC   D2A35142   2.909   1.624  12.162
 2990DOPC   C3A35143   2.969   2.084  12.262
 2990DOPC   C4A35144   3.229   2.394  12.382
 2990DOPC   C1B35145   2.129   1.284  12.832
 2990DOPC   D2B35146   1.939   1.084  13.212
 2990DOPC   C3B35147   1.689   0.684  13.262
 2990DOPC   C4B35148   1.269   0.614  13.422
 2991DOPC   NC335149  15.829  16.354  11.622
 2991DOPC   PO435150  15.929  16.784  11.662
 2991DOPC   GL135151  15.879  16.474  12.092
 2991DOPC   GL235152  15.539  16.344  12.142
 2991DOPC   C1A35153  15.769  16.784  12.462
 2991DOPC   D2A35154  15.979  16.674  12.772
 2991DOPC   C3A35155  15.939  16.954  13.002
 2991DOPC   C4A35156  16.019  17.344  13.092
 2991DOPC   C1B35157  15.279  16.464  12.342
 2991DOPC   D2B35158  15.389  16.434  12.722
 2991DOPC   C3B35159  14.939  16.494  12.872
 2991DOPC   C4B35160  14.659  16.684  13.172
 2992DOPC   NC335161  16.389   3.884  11.172
 2992DOPC   PO435162  16.669   3.484  11.212
 2992DOPC   GL135163  16.649   3.674  11.572
 2992DOPC   GL235164  16.839   3.784  11.732
 2992DOPC   C1A35165  16.439   3.954  11.922
 2992DOPC   D2A35166  16.809   4.064  12.292
 2992DOPC   C3A35167  16.829   4.484  12.412
 2992DOPC   C4A35168  16.679   4.574  12.792
 2992DOPC   C1B35169  16.749   3.454  12.092
 2992DOPC   D2B35170  16.719   3.174  12.482
 2992DOPC   C3B35171  16.489   3.394  12.742
 2992DOPC   C4B35172  16.509   3.304  13.132
 2993DOPC   NC335173  12.629   8.854  10.692
 2993DOPC   PO435174  12.189   8.684  10.822
 2993DOPC   GL135175  11.899   8.744  11.202
 2993DOPC   GL235176  11.569   8.884  11.182
 2993DOPC   C1A35177  12.109   9.064  11.522
 2993DOPC   D2A35178  12.309   9.234  11.892
 2993DOPC   C3A35179  12.269   9.424  12.402
 2993DOPC   C4A35180  12.349   9.784  12.662
 2993DOPC   C1B35181  11.379   9.104  11.482
 2993DOPC   D2B35182  11.329   9.244  11.892
 2993DOPC   C3B35183  11.019   9.204  12.152
 2993DOPC   C4B35184  10.999   9.444  12.562
 2994DOPC   NC335185  19.239  10.854  11.372
 2994DOPC   PO435186  19.029  10.454  11.342
 2994DOPC   GL135187  18.929  10.414  11.732
 2994DOPC   GL235188  19.039  10.694  11.872
 2994DOPC   C1A35189  18.759  10.064  11.862
 2994DOPC   D2A35190  18.589  10.094  12.352
 2994DOPC   C3A35191  18.259  10.334  12.452
 2994DOPC   C4A35192  17.889  10.324  12.722
 2994DOPC   C1B35193  19.009  10.344  12.242
 2994DOPC   D2B35194  19.079  10.034  12.512
 2994DOPC   C3B35195  18.949   9.894  12.892
 2994DOPC   C4B35196  18.989   9.564  13.202
 2995DOPC   NC335197   8.669   6.254  10.912
 2995DOPC   PO435198   9.069   5.934  10.882
 2995DOPC   GL135199   9.369   5.854  11.222
 2995DOPC   GL235200   9.289   5.494  11.442
 2995DOPC   C1A35201   9.559   5.934  11.652
 2995DOPC   D2A35202   9.369   6.124  12.152
 2995DOPC   C3A35203   9.339   5.934  12.552
 2995DOPC   C4A35204   9.499   5.734  12.882
 2995DOPC   C1B35205   9.469   5.084  11.572
 2995DOPC   D2B35206   9.339   4.764  11.802
 2995DOPC   C3B35207   9.349   4.624  12.252
 2995DOPC   C4B35208   9.119   4.784  12.652
 2996DOPC   NC335209   6.709   1.254  11.302
 2996DOPC   PO435210   6.589   1.424  11.622
 2996DOPC   GL135211   6.179   1.554  11.912
 2996DOPC   GL235212   5.939   1.264  11.992
 2996DOPC   C1A35213   5.959   1.614  12.302
 2996DOPC   D2A35214   6.139   1.574  12.742
 2996DOPC   C3A35215   6.139   1.494  13.162
 2996DOPC   C4A35216   5.909   1.214  13.462
 2996DOPC   C1B35217   5.889   1.094  12.342
 2996DOPC   D2B35218   5.799   1.244  12.762
 2996DOPC   C3B35219   5.689   0.994  13.072
 2996DOPC   C4B35220   5.399   1.144  13.302
 2997DOPC   NC335221   0.339  25.901  12.212
 2997DOPC   PO435222   0.329  25.471  12.172
 2997DOPC   GL135223   0.199  25.371  12.532
 2997DOPC   GL235224   0.041  25.621  12.672
 2997DOPC   C1A35225   0.249  25.231  12.992
 2997DOPC   D2A35226   0.259  25.211  13.472
 2997DOPC   C3A35227   0.099  25.441  13.822
 2997DOPC   C4A35228   0.219  25.391  14.242
 2997DOPC   C1B35229   0.259  25.691  13.122
 2997DOPC   D2B35230   0.469  25.661  13.502
 2997DOPC   C3B35231   0.899  25.671  13.582
 2997DOPC   C4B35232   1.289  25.381  13.752
 2998DOPC   NC335233   3.919   3.074  14.992
 2998DOPC   PO435234   4.229   2.654  14.892
 2998DOPC   GL135235   4.309   2.944  14.502
 2998DOPC   GL235236   3.959   3.074  14.272
 2998DOPC   C1A35237   4.619   2.914  14.272
 2998DOPC   D2A35238   4.789   2.564  14.082
 2998DOPC   C3A35239   4.709   2.574  13.592
 2998DOPC   C4A35240   4.479   2.454  13.282
 2998DOPC   C1B35241   4.309   3.394  14.202
 2998DOPC   D2B35242   4.509   3.804  14.162
 2998DOPC   C3B35243   4.609   4.114  13.972
 2998DOPC   C4B35244   4.609   4.374  13.522
 2999DOPC   NC335245  15.909  17.254  11.522
 2999DOPC   PO435246  15.879  17.624  11.602
 2999DOPC   GL135247  15.449  17.534  11.782
 2999DOPC   GL235248  15.179  17.864  11.792
 2999DOPC   C1A35249  15.329  17.424  12.192
 2999DOPC   D2A35250  15.219  17.444  12.532
 2999DOPC   C3A35251  15.569  17.594  12.812
 2999DOPC   C4A35252  15.759  17.964  12.902
 2999DOPC   C1B35253  15.009  17.934  12.092
 2999DOPC   D2B35254  14.879  18.234  12.472
 2999DOPC   C3B35255  14.629  18.024  12.802
 2999DOPC   C4B35256  14.349  17.694  12.782
 3000DOPC   NC335257  23.339  24.521  12.162
 3000DOPC   PO435258  23.099  24.101  12.292
 3000DOPC   GL135259  23.139  24.141  12.702
 3000DOPC   GL235260  23.179  23.991  12.922
 3000DOPC   C1A35261  23.339  24.441  12.942
 3000DOPC   D2A35262  23.169  24.841  13.202
 3000DOPC   C3A35263  23.269  25.291  13.292
 3000DOPC   C4A35264  23.089  25.541  13.502
 3000DOPC   C1B35265  23.149  23.861  13.322
 3000DOPC   D2B35266  23.069  23.751  13.772
 3000DOPC   C3B35267  23.379  23.991  14.022
 3000DOPC   C4B35268  23.479  24.101  14.462
 3001DOPC   NC335269  24.839   6.804  15.602
 3001DOPC   PO435270  24.879   7.124  15.362
 3001DOPC   GL135271  24.739   7.354  15.092
 3001DOPC   GL235272  25.049   7.294  14.872
 3001DOPC   C1A35273  24.619   7.674  14.772
 3001DOPC   D2A35274  24.679   7.784  14.432
 3001DOPC   C3A35275  24.519   7.604  14.132
 3001DOPC   C4A35276  24.219   7.504  13.762
 3001DOPC   C1B35277  25.289   7.524  14.532
 3001DOPC   D2B35278  25.259   7.754  14.182
 3001DOPC   C3B35279  25.039   7.634  13.782
 3001DOPC   C4B35280  25.159   7.514  13.372
 3002DOPC   NC335281  18.479  20.134  15.792
 3002DOPC   PO435282  18.079  19.874  15.772
 3002DOPC   GL135283  18.389  19.734  15.492
 3002DOPC   GL235284  18.389  19.384  15.382
 3002DOPC   C1A35285  18.439  19.934  15.102
 3002DOPC   D2A35286  18.649  19.734  14.832
 3002DOPC   C3A35287  18.419  19.644  14.432
 3002DOPC   C4A35288  17.979  19.714  14.202
 3002DOPC   C1B35289  18.339  19.184  14.882
 3002DOPC   D2B35290  18.209  19.124  14.422
 3002DOPC   C3B35291  18.469  19.284  14.002
 3002DOPC   C4B35292  18.979  19.254  14.232
 3003DOPC   NC335293   5.679  15.134  15.982
 3003DOPC   PO435294   5.419  14.994  15.642
 3003DOPC   GL135295   5.139  14.914  15.342
 3003DOPC   GL235296   4.799  14.874  15.282
 3003DOPC   C1A35297   5.019  14.914  14.802
 3003DOPC   D2A35298   4.889  14.964  14.502
 3003DOPC   C3A35299   5.249  14.964  14.222
 3003DOPC   C4A35300   5.239  15.164  13.792
 3003DOPC   C1B35301   4.529  14.594  15.052
 3003DOPC   D2B35302   4.259  14.374  14.802
 3003DOPC   C3B35303   4.219  14.294  14.362
 3003DOPC   C4B35304   3.959  14.344  14.002
 3004DOPC   NC335305  23.489  22.071  12.262
 3004DOPC   PO435306  23.489  21.721  12.532
 3004DOPC   GL135307  23.619  21.881  12.912
 3004DOPC   GL235308  23.879  21.931  12.762
 3004DOPC   C1A35309  23.559  22.031  13.342
 3004DOPC   D2A35310  23.149  21.901  13.532
 3004DOPC   C3A35311  22.999  21.601  13.772
 3004DOPC   C4A35312  22.869  21.254  13.782
 3004DOPC   C1B35313  24.129  21.941  13.192
 3004DOPC   D2B35314  23.979  22.221  13.472
 3004DOPC   C3B35315  24.339  22.421  13.722
 3004DOPC   C4B35316  24.719  22.461  14.052
 3005DOPC   NC335317   4.749   3.764  11.562
 3005DOPC   PO435318   4.359   3.594  11.482
 3005DOPC   GL135319   4.219   3.544  11.982
 3005DOPC   GL235320   3.929   3.624  12.082
 3005DOPC   C1A35321   4.359   3.794  12.342
 3005DOPC   D2A35322   4.609   3.684  12.872
 3005DOPC   C3A35323   5.109   3.594  12.842
 3005DOPC   C4A35324   5.269   3.444  13.212
 3005DOPC   C1B35325   3.939   3.394  12.482
 3005DOPC   D2B35326   3.759   3.364  12.922
 3005DOPC   C3B35327   3.489   3.644  13.132
 3005DOPC   C4B35328   3.169   3.534  13.432
 3006DOPC   NC335329  16.539  24.071  11.772
 3006DOPC   PO435330  16.379  23.591  11.812
 3006DOPC   GL135331  16.299  23.571  12.212
 3006DOPC   GL235332  15.959  23.571  12.312
 3006DOPC   C1A35333  16.459  23.781  12.652
 3006DOPC   D2A35334  16.459  24.291  12.692
 3006DOPC   C3A35335  16.269  24.661  12.942
 3006DOPC   C4A35336  15.829  24.941  12.962
 3006DOPC   C1B35337  15.779  23.411  12.622
 3006DOPC   D2B35338  15.439  23.471  12.912
 3006DOPC   C3B35339  15.659  23.481  13.262
 3006DOPC   C4B35340  15.569  23.161  13.552
 3007DOPC   NC335341   0.279  17.144  11.742
 3007DOPC   PO435342   0.549  16.974  12.052
 3007DOPC   GL135343   0.679  16.964  12.502
 3007DOPC   GL235344   0.789  16.664  12.802
 3007DOPC   C1A35345   0.739  17.104  12.932
 3007DOPC   D2A35346   1.149  17.104  13.242
 3007DOPC   C3A35347   0.999  16.964  13.692
 3007DOPC   C4A35348   0.799  16.864  14.082
 3007DOPC   C1B35349   0.529  16.514  13.052
 3007DOPC   D2B35350   0.079  16.314  13.222
 3007DOPC   C3B35351  -0.039  16.244  13.542
 3007DOPC   C4B35352  -0.039  15.914  13.912
 3008DOPC   NC335353   7.179  21.761  15.322
 3008DOPC   PO435354   7.089  21.381  15.202
 3008DOPC   GL135355   6.899  21.511  14.862
 3008DOPC   GL235356   6.559  21.411  14.852
 3008DOPC   C1A35357   7.089  21.461  14.452
 3008DOPC   D2A35358   7.279  21.144  14.182
 3008DOPC   C3A35359   7.249  21.134  13.772
 3008DOPC   C4A35360   7.139  20.964  13.492
 3008DOPC   C1B35361   6.739  21.074  14.642
 3008DOPC   D2B35362   6.829  21.014  14.322
 3008DOPC   C3B35363   6.659  20.694  14.172
 3008DOPC   C4B35364   6.219  20.644  14.292
 3009DOPC   NC335365   7.779  11.734  10.772
 3009DOPC   PO435366   7.369  11.694  11.082
 3009DOPC   GL135367   7.369  11.754  11.442
 3009DOPC   GL235368   7.189  11.764  11.752
 3009DOPC   C1A35369   7.699  12.134  11.652
 3009DOPC   D2A35370   7.959  12.524  11.482
 3009DOPC   C3A35371   8.209  12.644  11.732
 3009DOPC   C4A35372   8.539  12.894  11.932
 3009DOPC   C1B35373   7.539  11.954  12.172
 3009DOPC   D2B35374   8.009  11.964  12.362
 3009DOPC   C3B35375   8.199  12.154  12.002
 3009DOPC   C4B35376   8.169  12.114  11.532
 3010DOPC   NC335377   9.539  21.294  10.612
 3010DOPC   PO435378   9.339  21.114  10.932
 3010DOPC   GL135379   9.529  20.924  11.322
 3010DOPC   GL235380   9.849  21.064  11.542
 3010DOPC   C1A35381   9.279  20.844  11.712
 3010DOPC   D2A35382   8.899  20.594  11.862
 3010DOPC   C3A35383   8.559  20.414  12.072
 3010DOPC   C4A35384   8.299  20.464  12.412
 3010DOPC   C1B35385   9.759  20.764  11.792
 3010DOPC   D2B35386   9.409  20.554  12.092
 3010DOPC   C3B35387   9.219  20.714  12.442
 3010DOPC   C4B35388   9.129  20.654  12.872
 3011DOPC   NC335389  22.099  18.134  12.392
 3011DOPC   PO435390  21.859  17.744  12.312
 3011DOPC   GL135391  22.029  17.504  12.732
 3011DOPC   GL235392  22.169  17.794  12.892
 3011DOPC   C1A35393  22.329  17.244  12.972
 3011DOPC   D2A35394  22.509  17.114  13.402
 3011DOPC   C3A35395  22.579  17.344  13.642
 3011DOPC   C4A35396  22.699  17.794  13.662
 3011DOPC   C1B35397  22.599  17.634  12.822
 3011DOPC   D2B35398  22.829  17.444  13.202
 3011DOPC   C3B35399  23.169  17.584  13.392
 3011DOPC   C4B35400  23.219  17.864  13.642
 3012DOPC   NC335401  25.129  15.654  11.952
 3012DOPC   PO435402  25.449  15.304  12.042
 3012DOPC   GL135403  25.609  15.154  12.322
 3012DOPC   GL235404  25.329  15.244  12.502
 3012DOPC   C1A35405  25.666  15.004  12.762
 3012DOPC   D2A35406  25.656  14.634  13.002
 3012DOPC   C3A35407  25.856  14.324  12.952
 3012DOPC   C4A35408  26.176  14.084  13.112
 3012DOPC   C1B35409  25.049  15.164  12.842
 3012DOPC   D2B35410  25.119  14.874  13.232
 3012DOPC   C3B35411  25.379  15.054  13.492
 3012DOPC   C4B35412  25.339  15.404  13.832
 3013DOPC   NC335413  15.689  22.441  11.552
 3013DOPC   PO435414  15.879  22.461  11.972
 3013DOPC   GL135415  15.919  22.641  12.382
 3013DOPC   GL235416  15.949  22.901  12.532
 3013DOPC   C1A35417  16.069  22.581  12.902
 3013DOPC   D2A35418  16.219  22.601  13.282
 3013DOPC   C3A35419  16.259  22.311  13.612
 3013DOPC   C4A35420  16.189  21.951  13.742
 3013DOPC   C1B35421  15.639  22.941  12.812
 3013DOPC   D2B35422  15.199  23.011  12.902
 3013DOPC   C3B35423  15.129  23.311  13.372
 3013DOPC   C4B35424  14.989  23.591  13.722
 3014DOPC   NC335425  -0.629   2.094  11.302
 3014DOPC   PO435426  -0.539   1.954  11.772
 3014DOPC   GL135427  -0.119   2.084  11.982
 3014DOPC   GL235428   0.219   1.784  12.052
 3014DOPC   C1A35429   0.089   2.354  12.322
 3014DOPC   D2A35430   0.289   2.764  12.412
 3014DOPC   C3A35431   0.409   2.744  12.872
 3014DOPC   C4A35432   0.649   2.544  13.222
 3014DOPC   C1B35433   0.469   1.934  12.282
 3014DOPC   D2B35434   0.819   2.024  12.462
 3014DOPC   C3B35435   0.939   1.864  12.842
 3014DOPC   C4B35436   1.139   1.554  13.132
 3015DOPC   NC335437  11.509  20.754  11.172
 3015DOPC   PO435438  11.269  21.064  11.242
 3015DOPC   GL135439  10.999  21.194  11.632
 3015DOPC   GL235440  10.669  21.194  11.682
 3015DOPC   C1A35441  11.039  21.074  12.082
 3015DOPC   D2A35442  11.239  20.914  12.482
 3015DOPC   C3A35443  11.029  20.794  12.922
 3015DOPC   C4A35444  10.609  20.774  13.132
 3015DOPC   C1B35445  10.559  21.174  12.082
 3015DOPC   D2B35446  10.809  21.104  12.552
 3015DOPC   C3B35447  10.759  21.334  12.922
 3015DOPC   C4B35448  10.939  21.134  13.282
 3016DOPC   NC335449   4.439   2.344  15.132
 3016DOPC   PO435450   4.589   1.914  15.232
 3016DOPC   GL135451   4.339   1.804  14.892
 3016DOPC   GL235452   4.039   1.964  14.752
 3016DOPC   C1A35453   4.389   1.574  14.572
 3016DOPC   D2A35454   4.389   1.434  14.112
 3016DOPC   C3A35455   4.029   1.414  13.862
 3016DOPC   C4A35456   3.729   1.724  13.652
 3016DOPC   C1B35457   4.109   2.214  14.392
 3016DOPC   D2B35458   4.279   2.454  14.132
 3016DOPC   C3B35459   4.179   2.424  13.742
 3016DOPC   C4B35460   3.939   2.874  13.542
 3017DOPC   NC335461   7.959   5.524  10.142
 3017DOPC   PO435462   8.169   5.594  10.562
 3017DOPC   GL135463   8.319   5.534  10.992
 3017DOPC   GL235464   8.029   5.414  11.162
 3017DOPC   C1A35465   8.399   5.654  11.412
 3017DOPC   D2A35466   8.579   5.544  11.762
 3017DOPC   C3A35467   8.999   5.304  11.772
 3017DOPC   C4A35468   9.249   5.144  12.052
 3017DOPC   C1B35469   8.159   5.344  11.642
 3017DOPC   D2B35470   8.149   5.004  11.952
 3017DOPC   C3B35471   8.429   5.224  12.152
 3017DOPC   C4B35472   8.559   5.574  12.402
 3018DOPC   NC335473  16.359  16.144  11.482
 3018DOPC   PO435474  16.319  16.434  11.862
 3018DOPC   GL135475  16.319  16.404  12.252
 3018DOPC   GL235476  16.659  16.284  12.342
 3018DOPC   C1A35477  16.269  16.284  12.692
 3018DOPC   D2A35478  16.219  16.164  13.142
 3018DOPC   C3A35479  16.139  15.684  13.252
 3018DOPC   C4A35480  16.099  15.184  13.372
 3018DOPC   C1B35481  16.699  15.944  12.522
 3018DOPC   D2B35482  16.439  15.764  12.852
 3018DOPC   C3B35483  16.609  15.424  13.142
 3018DOPC   C4B35484  16.569  15.014  13.312
 3019DOPC   NC335485   1.729  15.544  15.532
 3019DOPC   PO435486   1.799  15.164  15.452
 3019DOPC   GL135487   1.729  15.304  15.032
 3019DOPC   GL235488   1.629  15.634  14.992
 3019DOPC   C1A35489   1.629  15.164  14.632
 3019DOPC   D2A35490   1.759  14.954  14.322
 3019DOPC   C3A35491   1.679  15.104  13.882
 3019DOPC   C4A35492   1.429  15.134  13.622
 3019DOPC   C1B35493   1.799  15.684  14.582
 3019DOPC   D2B35494   1.499  15.604  14.292
 3019DOPC   C3B35495   1.599  15.604  13.822
 3019DOPC   C4B35496   1.819  15.794  13.572
 3020DOPC   NC335497  22.399  20.204  12.392
 3020DOPC   PO435498  22.149  19.864  12.092
 3020DOPC   GL135499  22.329  19.664  12.362
 3020DOPC   GL235500  22.209  19.304  12.482
 3020DOPC   C1A35501  22.539  19.554  12.822
 3020DOPC   D2A35502  22.829  19.344  13.062
 3020DOPC   C3A35503  22.719  18.924  13.212
 3020DOPC   C4A35504  22.739  18.514  13.062
 3020DOPC   C1B35505  22.029  19.474  12.852
 3020DOPC   D2B35506  21.619  19.494  13.042
 3020DOPC   C3B35507  21.399  19.534  13.382
 3020DOPC   C4B35508  21.549  19.574  13.722
 3021DOPC   NC335509  10.769   0.534  14.952
 3021DOPC   PO435510  11.219   0.454  14.832
 3021DOPC   GL135511  11.169   0.474  14.362
 3021DOPC   GL235512  11.469   0.564  14.132
 3021DOPC   C1A35513  10.889   0.544  14.072
 3021DOPC   D2A35514  10.869   0.624  13.592
 3021DOPC   C3A35515  11.349   0.604  13.502
 3021DOPC   C4A35516  11.719   0.884  13.382
 3021DOPC   C1B35517  11.729   0.554  13.782
 3021DOPC   D2B35518  11.839   0.364  13.342
 3021DOPC   C3B35519  11.949   0.004  13.342
 3021DOPC   C4B35520  12.239  -0.396  13.312
 3022DOPC   NC335521  21.179   5.594  11.372
 3022DOPC   PO435522  20.949   5.164  11.512
 3022DOPC   GL135523  21.049   5.084  11.902
 3022DOPC   GL235524  20.729   5.074  12.062
 3022DOPC   C1A35525  21.129   5.294  12.252
 3022DOPC   D2A35526  21.169   5.194  12.602
 3022DOPC   C3A35527  21.459   5.454  12.872
 3022DOPC   C4A35528  21.789   5.724  12.772
 3022DOPC   C1B35529  21.029   4.734  12.312
 3022DOPC   D2B35530  20.989   4.784  12.792
 3022DOPC   C3B35531  21.209   5.104  13.132
 3022DOPC   C4B35532  21.569   5.394  13.382
 3023DOPC   NC335533   4.239   4.084  15.032
 3023DOPC   PO435534   3.869   3.964  15.112
 3023DOPC   GL135535   3.799   3.864  14.742
 3023DOPC   GL235536   3.559   3.824  14.662
 3023DOPC   C1A35537   3.969   3.814  14.312
 3023DOPC   D2A35538   3.999   3.664  13.852
 3023DOPC   C3A35539   4.089   3.304  13.772
 3023DOPC   C4A35540   4.229   2.874  13.922
 3023DOPC   C1B35541   3.399   3.604  14.222
 3023DOPC   D2B35542   3.139   3.294  13.942
 3023DOPC   C3B35543   2.929   2.984  14.062
 3023DOPC   C4B35544   2.929   2.564  14.172
 3024DOPC   NC335545   7.519  25.701  11.162
 3024DOPC   PO435546   7.669  25.231  11.232
 3024DOPC   GL135547   7.669  25.151  11.712
 3024DOPC   GL235548   8.029  25.201  11.832
 3024DOPC   C1A35549   7.519  25.231  12.122
 3024DOPC   D2A35550   7.289  25.461  12.432
 3024DOPC   C3A35551   7.329  25.681  12.802
 3024DOPC   C4A35552   7.029  25.761  13.192
 3024DOPC   C1B35553   8.199  25.021  12.242
 3024DOPC   D2B35554   8.369  25.021  12.562
 3024DOPC   C3B35555   8.409  24.941  12.882
 3024DOPC   C4B35556   8.129  24.771  13.212
 3025DOPC   NC335557  16.329   0.714  15.632
 3025DOPC   PO435558  16.519   0.294  15.802
 3025DOPC   GL135559  16.599   0.324  15.342
 3025DOPC   GL235560  16.909   0.494  15.272
 3025DOPC   C1A35561  16.779  -0.036  15.102
 3025DOPC   D2A35562  17.069  -0.386  14.892
 3025DOPC   C3A35563  17.009  -0.556  14.532
 3025DOPC   C4A35564  17.059  -0.326  14.142
 3025DOPC   C1B35565  17.079   0.294  14.842
 3025DOPC   D2B35566  16.959   0.054  14.592
 3025DOPC   C3B35567  17.269   0.124  14.162
 3025DOPC   C4B35568  17.589   0.284  13.762
 3026DOPC   NC335569  25.559  21.344  15.912
 3026DOPC   PO435570  25.199  21.254  15.942
 3026DOPC   GL135571  25.059  21.184  15.552
 3026DOPC   GL235572  25.399  21.204  15.352
 3026DOPC   C1A35573  24.839  21.304  15.212
 3026DOPC   D2A35574  24.919  21.571  14.862
 3026DOPC   C3A35575  25.099  21.361  14.532
 3026DOPC   C4A35576  25.009  21.334  14.122
 3026DOPC   C1B35577  25.349  21.274  15.022
 3026DOPC   D2B35578  25.569  21.491  14.632
 3026DOPC   C3B35579  25.976  21.234  14.452
 3026DOPC   C4B35580  26.026  20.854  14.252
 3027DOPC   NC335581   8.869   3.554  14.532
 3027DOPC   PO435582   9.259   3.684  14.712
 3027DOPC   GL135583   9.299   3.794  14.222
 3027DOPC   GL235584   8.999   3.874  14.152
 3027DOPC   C1A35585   9.469   3.874  13.842
 3027DOPC   D2A35586   9.539   3.914  13.392
 3027DOPC   C3A35587   9.989   4.124  13.222
 3027DOPC   C4A35588  10.319   4.244  12.972
 3027DOPC   C1B35589   8.989   3.774  13.692
 3027DOPC   D2B35590   8.729   3.464  13.562
 3027DOPC   C3B35591   8.779   3.184  13.192
 3027DOPC   C4B35592   8.889   3.014  12.862
 3028DOPC   NC335593   5.789  15.074  11.232
 3028DOPC   PO435594   6.139  14.954  11.012
 3028DOPC   GL135595   6.169  14.844  11.512
 3028DOPC   GL235596   5.859  14.864  11.762
 3028DOPC   C1A35597   6.349  15.054  11.862
 3028DOPC   D2A35598   6.679  14.854  12.142
 3028DOPC   C3A35599   7.059  14.744  12.132
 3028DOPC   C4A35600   7.419  14.864  12.322
 3028DOPC   C1B35601   6.169  14.654  12.132
 3028DOPC   D2B35602   5.969  14.324  12.322
 3028DOPC   C3B35603   5.899  14.624  12.642
 3028DOPC   C4B35604   5.699  14.864  12.922
 3029DOPC   NC335605  16.369   8.724  10.902
 3029DOPC   PO435606  16.559   8.354  10.782
 3029DOPC   GL135607  16.669   8.424  11.222
 3029DOPC   GL235608  16.589   8.724  11.412
 3029DOPC   C1A35609  16.919   8.404  11.632
 3029DOPC   D2A35610  17.209   8.504  12.112
 3029DOPC   C3A35611  17.069   8.554  12.552
 3029DOPC   C4A35612  16.829   8.684  12.832
 3029DOPC   C1B35613  16.509   8.644  11.952
 3029DOPC   D2B35614  16.629   8.724  12.342
 3029DOPC   C3B35615  16.609   9.094  12.392
 3029DOPC   C4B35616  16.609   9.454  12.142
 3030DOPC   NC335617  24.339  23.171  16.152
 3030DOPC   PO435618  24.649  23.491  16.072
 3030DOPC   GL135619  24.399  23.541  15.802
 3030DOPC   GL235620  24.479  23.271  15.612
 3030DOPC   C1A35621  24.169  23.701  15.512
 3030DOPC   D2A35622  23.889  23.671  15.132
 3030DOPC   C3A35623  23.839  23.821  14.762
 3030DOPC   C4A35624  24.179  24.131  14.502
 3030DOPC   C1B35625  24.289  23.371  15.192
 3030DOPC   D2B35626  23.999  23.311  14.852
 3030DOPC   C3B35627  23.849  23.471  14.412
 3030DOPC   C4B35628  23.689  23.331  14.092
 3031DOPC   NC335629   4.389   0.314  11.682
 3031DOPC   PO435630   4.409   0.814  11.572
 3031DOPC   GL135631   4.379   1.114  11.872
 3031DOPC   GL235632   4.729   1.124  11.962
 3031DOPC   C1A35633   4.189   1.394  12.252
 3031DOPC   D2A35634   4.449   1.614  12.612
 3031DOPC   C3A35635   4.839   1.344  12.832
 3031DOPC   C4A35636   5.059   0.914  12.902
 3031DOPC   C1B35637   4.549   0.994  12.312
 3031DOPC   D2B35638   4.579   0.904  12.772
 3031DOPC   C3B35639   4.419   0.514  13.002
 3031DOPC   C4B35640   4.369   0.284  13.282
 3032DOPC   NC335641   9.099   8.694  10.182
 3032DOPC   PO435642   9.339   8.944  10.432
 3032DOPC   GL135643   9.369   8.884  10.902
 3032DOPC   GL235644   9.629   9.144  11.052
 3032DOPC   C1A35645   9.009   8.794  11.202
 3032DOPC   D2A35646   8.739   8.524  11.322
 3032DOPC   C3A35647   8.709   8.484  11.772
 3032DOPC   C4A35648   8.759   8.344  12.192
 3032DOPC   C1B35649   9.759   9.224  11.392
 3032DOPC   D2B35650   9.829   9.284  11.792
 3032DOPC   C3B35651  10.149   9.144  12.022
 3032DOPC   C4B35652  10.249   8.934  12.482
 3033DOPC   NC335653   0.179  20.884  11.862
 3033DOPC   PO435654   0.059  21.154  12.092
 3033DOPC   GL135655   0.089  20.964  12.462
 3033DOPC   GL235656   0.419  20.974  12.492
 3033DOPC   C1A35657  -0.089  20.854  12.922
 3033DOPC   D2A35658  -0.489  20.694  12.972
 3033DOPC   C3A35659  -0.609  20.814  13.362
 3033DOPC   C4A35660  -0.689  21.104  13.662
 3033DOPC   C1B35661   0.449  20.964  12.912
 3033DOPC   D2B35662   0.229  21.114  13.292
 3033DOPC   C3B35663   0.289  21.441  13.532
 3033DOPC   C4B35664   0.359  21.531  13.992
 3034DOPC   NC335665  23.919  10.054  11.852
 3034DOPC   PO435666  23.959   9.594  12.062
 3034DOPC   GL135667  23.699   9.834  12.342
 3034DOPC   GL235668  23.239   9.894  12.302
 3034DOPC   C1A35669  23.569   9.724  12.742
 3034DOPC   D2A35670  23.569   9.444  13.182
 3034DOPC   C3A35671  23.279   9.574  13.412
 3034DOPC   C4A35672  22.909   9.354  13.482
 3034DOPC   C1B35673  22.989   9.944  12.672
 3034DOPC   D2B35674  22.649  10.184  12.972
 3034DOPC   C3B35675  22.819  10.204  13.392
 3034DOPC   C4B35676  22.899   9.854  13.682
 3035DOPC   NC335677  14.419  10.624  10.542
 3035DOPC   PO435678  14.229  10.874  10.282
 3035DOPC   GL135679  14.099  10.984  10.732
 3035DOPC   GL235680  14.299  10.934  10.902
 3035DOPC   C1A35681  13.779  10.944  11.102
 3035DOPC   D2A35682  13.389  10.984  11.222
 3035DOPC   C3A35683  13.209  10.674  11.482
 3035DOPC   C4A35684  12.919  10.714  11.812
 3035DOPC   C1B35685  14.409  11.054  11.402
 3035DOPC   D2B35686  14.579  11.154  11.792
 3035DOPC   C3B35687  14.829  10.824  11.922
 3035DOPC   C4B35688  14.989  10.754  12.292
 3036DOPC   NC335689   4.599   2.684  11.402
 3036DOPC   PO435690   4.989   2.384  11.532
 3036DOPC   GL135691   5.169   2.524  11.882
 3036DOPC   GL235692   4.949   2.744  11.892
 3036DOPC   C1A35693   4.949   2.414  12.312
 3036DOPC   D2A35694   4.629   2.054  12.462
 3036DOPC   C3A35695   4.819   1.494  12.332
 3036DOPC   C4A35696   4.999   1.094  12.452
 3036DOPC   C1B35697   4.639   2.774  12.332
 3036DOPC   D2B35698   4.489   2.814  12.812
 3036DOPC   C3B35699   4.819   2.974  13.062
 3036DOPC   C4B35700   5.069   2.834  13.452
 3037DOPC   NC335701   0.959  19.154  15.932
 3037DOPC   PO435702   0.529  19.454  15.792
 3037DOPC   GL135703   0.339  19.384  15.392
 3037DOPC   GL235704   0.139  19.594  15.502
 3037DOPC   C1A35705   0.269  19.354  14.942
 3037DOPC   D2A35706   0.329  19.124  14.702
 3037DOPC   C3A35707   0.429  19.324  14.302
 3037DOPC   C4A35708   0.459  19.364  13.892
 3037DOPC   C1B35709   0.149  19.804  15.142
 3037DOPC   D2B35710  -0.049  20.044  14.812
 3037DOPC   C3B35711  -0.129  19.874  14.432
 3037DOPC   C4B35712  -0.429  19.934  14.152
 3038DOPC   NC335713   2.019  15.784  11.902
 3038DOPC   PO435714   2.459  15.564  11.692
 3038DOPC   GL135715   2.619  15.564  12.022
 3038DOPC   GL235716   2.819  15.714  12.132
 3038DOPC   C1A35717   2.729  15.364  12.442
 3038DOPC   D2A35718   2.669  15.374  12.902
 3038DOPC   C3A35719   2.569  15.024  13.102
 3038DOPC   C4A35720   2.139  14.814  13.022
 3038DOPC   C1B35721   2.869  15.854  12.562
 3038DOPC   D2B35722   2.939  15.844  13.002
 3038DOPC   C3B35723   3.009  15.664  13.242
 3038DOPC   C4B35724   3.059  15.274  13.452
 3039DOPC   NC335725   1.059  20.064  15.612
 3039DOPC   PO435726   1.329  19.724  15.472
 3039DOPC   GL135727   1.269  19.694  15.102
 3039DOPC   GL235728   1.179  19.404  15.042
 3039DOPC   C1A35729   1.079  19.854  14.752
 3039DOPC   D2A35730   0.979  19.584  14.402
 3039DOPC   C3A35731   0.679  19.704  14.152
 3039DOPC   C4A35732   0.399  19.854  13.872
 3039DOPC   C1B35733   1.389  19.264  14.642
 3039DOPC   D2B35734   1.329  19.304  14.212
 3039DOPC   C3B35735   1.199  19.704  13.992
 3039DOPC   C4B35736   1.379  20.124  13.982
 3040DOPC   NC335737  15.549  21.004  11.822
 3040DOPC   PO435738  15.769  21.174  12.042
 3040DOPC   GL135739  15.839  21.451  12.272
 3040DOPC   GL235740  16.129  21.314  12.372
 3040DOPC   C1A35741  15.879  21.571  12.702
 3040DOPC   D2A35742  15.839  21.441  13.052
 3040DOPC   C3A35743  15.649  21.761  13.152
 3040DOPC   C4A35744  15.369  22.011  13.182
 3040DOPC   C1B35745  15.959  21.054  12.632
 3040DOPC   D2B35746  16.049  20.924  13.022
 3040DOPC   C3B35747  16.279  21.154  13.342
 3040DOPC   C4B35748  16.519  21.354  13.612
 3041DOPC   NC335749   9.899  12.704  14.362
 3041DOPC   PO435750  10.249  12.934  14.542
 3041DOPC   GL135751  10.409  13.284  14.272
 3041DOPC   GL235752  10.509  13.634  14.312
 3041DOPC   C1A35753  10.429  13.264  13.832
 3041DOPC   D2A35754  10.559  13.484  13.482
 3041DOPC   C3A35755  10.339  13.364  13.082
 3041DOPC   C4A35756   9.999  13.054  12.812
 3041DOPC   C1B35757  10.239  13.734  14.092
 3041DOPC   D2B35758   9.859  14.024  13.912
 3041DOPC   C3B35759   9.379  13.954  13.792
 3041DOPC   C4B35760   8.859  13.924  13.772
 3042DOPC   NC335761  11.879  19.844  15.072
 3042DOPC   PO435762  11.709  20.064  14.732
 3042DOPC   GL135763  11.739  19.924  14.392
 3042DOPC   GL235764  11.459  19.934  14.212
 3042DOPC   C1A35765  12.079  19.974  14.072
 3042DOPC   D2A35766  12.439  20.254  13.872
 3042DOPC   C3A35767  12.249  20.494  13.402
 3042DOPC   C4A35768  12.579  20.624  13.072
 3042DOPC   C1B35769  11.609  20.064  13.792
 3042DOPC   D2B35770  12.029  20.014  13.482
 3042DOPC   C3B35771  11.919  19.924  13.082
 3042DOPC   C4B35772  11.959  19.944  12.692
 3043DOPC   NC335773  10.499   5.584  10.322
 3043DOPC   PO435774  10.649   5.724  10.712
 3043DOPC   GL135775  10.619   5.824  11.172
 3043DOPC   GL235776  11.009   5.954  11.242
 3043DOPC   C1A35777  10.529   5.594  11.522
 3043DOPC   D2A35778  10.349   5.484  11.912
 3043DOPC   C3A35779  10.019   5.714  12.192
 3043DOPC   C4A35780   9.749   5.734  12.342
 3043DOPC   C1B35781  10.979   5.734  11.612
 3043DOPC   D2B35782  11.399   5.794  11.832
 3043DOPC   C3B35783  11.369   5.954  12.172
 3043DOPC   C4B35784  11.349   6.374  12.312
 3044DOPC   NC335785  14.959   9.604  10.622
 3044DOPC   PO435786  14.539   9.734  10.502
 3044DOPC   GL135787  14.599   9.834  10.892
 3044DOPC   GL235788  14.799  10.064  10.972
 3044DOPC   C1A35789  14.419   9.924  11.262
 3044DOPC   D2A35790  14.109  10.224  11.532
 3044DOPC   C3A35791  13.969  10.024  11.742
 3044DOPC   C4A35792  13.629  10.034  12.102
 3044DOPC   C1B35793  14.799  10.134  11.412
 3044DOPC   D2B35794  14.869  10.414  11.662
 3044DOPC   C3B35795  15.299  10.354  11.712
 3044DOPC   C4B35796  15.589  10.194  11.432
 3045DOPC   NC335797   0.011   6.084  15.272
 3045DOPC   PO435798   0.389   6.104  15.332
 3045DOPC   GL135799   0.559   6.144  14.842
 3045DOPC   GL235800   0.429   5.894  14.632
 3045DOPC   C1A35801   0.859   6.224  14.412
 3045DOPC   D2A35802   0.689   6.204  13.992
 3045DOPC   C3A35803   0.789   6.624  13.732
 3045DOPC   C4A35804   0.839   7.024  13.892
 3045DOPC   C1B35805   0.289   5.874  14.202
 3045DOPC   D2B35806   0.579   5.774  13.862
 3045DOPC   C3B35807   0.479   6.024  13.582
 3045DOPC   C4B35808   0.639   6.044  13.202
 3046DOPC   NC335809   6.449  10.624  11.082
 3046DOPC   PO435810   6.259  11.054  11.072
 3046DOPC   GL135811   6.389  10.954  11.442
 3046DOPC   GL235812   6.099  10.844  11.512
 3046DOPC   C1A35813   6.779  11.154  11.752
 3046DOPC   D2A35814   7.029  11.124  12.092
 3046DOPC   C3A35815   7.349  11.494  12.192
 3046DOPC   C4A35816   7.819  11.604  11.972
 3046DOPC   C1B35817   6.369  10.634  11.732
 3046DOPC   D2B35818   6.729  10.694  11.942
 3046DOPC   C3B35819   6.769  10.804  12.402
 3046DOPC   C4B35820   6.659  10.904  12.782
 3047DOPC   NC335821  22.669   5.534  11.152
 3047DOPC   PO435822  22.709   5.334  11.592
 3047DOPC   GL135823  22.749   5.354  11.972
 3047DOPC   GL235824  23.039   5.624  11.992
 3047DOPC   C1A35825  22.989   5.224  12.322
 3047DOPC   D2A35826  23.249   5.134  12.762
 3047DOPC   C3A35827  23.139   5.464  13.092
 3047DOPC   C4A35828  22.999   5.694  13.432
 3047DOPC   C1B35829  23.069   6.024  12.262
 3047DOPC   D2B35830  23.169   6.364  12.672
 3047DOPC   C3B35831  22.849   6.704  12.662
 3047DOPC   C4B35832  22.869   7.134  12.662
 3048DOPC   NC335833  14.989  16.864  15.012
 3048DOPC   PO435834  14.699  16.484  14.852
 3048DOPC   GL135835  14.599  16.474  14.462
 3048DOPC   GL235836  14.839  16.334  14.272
 3048DOPC   C1A35837  14.279  16.464  14.102
 3048DOPC   D2A35838  13.819  16.344  13.822
 3048DOPC   C3A35839  13.659  16.244  13.342
 3048DOPC   C4A35840  13.469  16.484  13.012
 3048DOPC   C1B35841  15.009  16.064  13.892
 3048DOPC   D2B35842  14.959  16.434  13.482
 3048DOPC   C3B35843  15.149  16.884  13.712
 3048DOPC   C4B35844  15.199  17.314  13.622
 3049DOPC   NC335845  21.499  23.661  16.182
 3049DOPC   PO435846  22.019  23.621  16.312
 3049DOPC   GL135847  21.929  23.701  15.862
 3049DOPC   GL235848  21.739  23.991  15.832
 3049DOPC   C1A35849  21.869  23.711  15.422
 3049DOPC   D2A35850  21.679  23.531  15.032
 3049DOPC   C3A35851  21.749  23.321  14.592
 3049DOPC   C4A35852  22.079  23.181  14.352
 3049DOPC   C1B35853  21.449  23.961  15.412
 3049DOPC   D2B35854  21.499  24.091  14.932
 3049DOPC   C3B35855  21.239  23.791  14.782
 3049DOPC   C4B35856  20.989  23.471  14.742
 3050DOPC   NC335857   6.779   3.074  10.932
 3050DOPC   PO435858   6.419   2.904  10.902
 3050DOPC   GL135859   6.479   2.774  11.332
 3050DOPC   GL235860   6.259   2.804  11.592
 3050DOPC   C1A35861   6.899   2.684  11.632
 3050DOPC   D2A35862   6.929   2.734  12.152
 3050DOPC   C3A35863   6.839   3.104  12.062
 3050DOPC   C4A35864   6.389   3.164  11.962
 3050DOPC   C1B35865   6.459   2.564  11.962
 3050DOPC   D2B35866   6.519   2.384  12.462
 3050DOPC   C3B35867   6.679   2.474  12.802
 3050DOPC   C4B35868   6.589   2.944  12.912
 3051DOPC   NC335869   3.489  26.081  11.472
 3051DOPC   PO435870   3.359  25.661  11.662
 3051DOPC   GL135871   3.569  25.391  11.962
 3051DOPC   GL235872   3.919  25.411  11.932
 3051DOPC   C1A35873   3.699  25.371  12.392
 3051DOPC   D2A35874   3.899  25.531  12.592
 3051DOPC   C3A35875   4.029  25.691  13.002
 3051DOPC   C4A35876   3.959  25.641  13.402
 3051DOPC   C1B35877   4.149  25.251  12.272
 3051DOPC   D2B35878   4.289  25.241  12.682
 3051DOPC   C3B35879   4.119  24.771  12.692
 3051DOPC   C4B35880   4.049  24.401  12.942
 3052DOPC   NC335881   8.549  17.654  14.902
 3052DOPC   PO435882   8.339  17.854  15.232
 3052DOPC   GL135883   8.259  18.074  14.812
 3052DOPC   GL235884   8.559  18.074  14.642
 3052DOPC   C1A35885   8.149  18.234  14.452
 3052DOPC   D2A35886   8.249  18.514  14.102
 3052DOPC   C3A35887   8.059  18.624  13.802
 3052DOPC   C4A35888   7.839  18.924  13.682
 3052DOPC   C1B35889   8.709  18.424  14.402
 3052DOPC   D2B35890   8.799  18.684  14.082
 3052DOPC   C3B35891   8.549  18.564  13.692
 3052DOPC   C4B35892   8.409  18.964  13.382
 3053DOPC   NC335893   7.449   4.504  10.532
 3053DOPC   PO435894   7.069   4.344  10.732
 3053DOPC   GL135895   6.839   4.374  11.142
 3053DOPC   GL235896   6.519   4.384  11.282
 3053DOPC   C1A35897   6.999   4.224  11.542
 3053DOPC   D2A35898   6.979   3.894  11.842
 3053DOPC   C3A35899   7.179   3.534  11.932
 3053DOPC   C4A35900   7.519   3.424  12.142
 3053DOPC   C1B35901   6.539   4.384  11.702
 3053DOPC   D2B35902   6.479   4.044  12.042
 3053DOPC   C3B35903   6.549   4.184  12.422
 3053DOPC   C4B35904   6.549   3.924  12.702
 3054DOPC   NC335905  15.609  12.854  14.622
 3054DOPC   PO435906  15.439  13.164  14.412
 3054DOPC   GL135907  15.599  13.034  13.852
 3054DOPC   GL235908  15.919  12.984  13.782
 3054DOPC   C1A35909  15.589  13.134  13.402
 3054DOPC   D2A35910  16.039  13.234  13.202
 3054DOPC   C3A35911  16.249  13.624  13.152
 3054DOPC   C4A35912  16.649  13.804  13.072
 3054DOPC   C1B35913  16.399  13.154  13.562
 3054DOPC   D2B35914  16.669  13.544  13.462
 3054DOPC   C3B35915  17.059  13.454  13.292
 3054DOPC   C4B35916  17.399  13.194  13.302
 3055DOPC   NC335917   2.219  20.454  11.482
 3055DOPC   PO435918   2.649  20.334  11.672
 3055DOPC   GL135919   2.529  20.144  12.062
 3055DOPC   GL235920   2.819  20.024  12.282
 3055DOPC   C1A35921   2.139  19.954  12.282
 3055DOPC   D2A35922   2.009  19.704  12.652
 3055DOPC   C3A35923   2.109  19.354  13.052
 3055DOPC   C4A35924   1.989  19.264  13.452
 3055DOPC   C1B35925   2.609  20.294  12.502
 3055DOPC   D2B35926   2.149  20.254  12.712
 3055DOPC   C3B35927   1.919  20.664  12.772
 3055DOPC   C4B35928   1.589  20.834  12.542
 3056DOPC   NC335929  16.269  18.014  11.542
 3056DOPC   PO435930  16.699  17.844  11.592
 3056DOPC   GL135931  16.629  18.044  11.942
 3056DOPC   GL235932  16.499  18.304  11.912
 3056DOPC   C1A35933  16.729  18.154  12.412
 3056DOPC   D2A35934  16.719  18.144  12.802
 3056DOPC   C3A35935  16.839  17.614  12.792
 3056DOPC   C4A35936  16.779  17.234  12.502
 3056DOPC   C1B35937  16.339  18.394  12.312
 3056DOPC   D2B35938  16.459  18.594  12.692
 3056DOPC   C3B35939  16.279  18.934  12.972
 3056DOPC   C4B35940  16.299  18.804  13.352
 3057DOPC   NC335941   1.699  14.844  11.612
 3057DOPC   PO435942   2.009  14.704  11.522
 3057DOPC   GL135943   2.049  14.564  11.962
 3057DOPC   GL235944   2.049  14.834  12.082
 3057DOPC   C1A35945   1.849  14.384  12.422
 3057DOPC   D2A35946   1.969  14.284  12.772
 3057DOPC   C3A35947   1.809  14.324  13.212
 3057DOPC   C4A35948   2.049  14.374  13.632
 3057DOPC   C1B35949   2.209  14.704  12.492
 3057DOPC   D2B35950   2.499  14.434  12.692
 3057DOPC   C3B35951   2.389  14.474  13.202
 3057DOPC   C4B35952   2.669  14.314  13.562
 3058DOPC   NC335953  13.809  15.084  14.782
 3058DOPC   PO435954  13.719  14.694  14.612
 3058DOPC   GL135955  13.729  14.754  14.202
 3058DOPC   GL235956  13.989  14.704  14.072
 3058DOPC   C1A35957  13.549  14.804  13.782
 3058DOPC   D2A35958  13.489  14.794  13.312
 3058DOPC   C3A35959  13.159  14.764  13.062
 3058DOPC   C4A35960  12.909  14.654  12.602
 3058DOPC   C1B35961  14.039  14.714  13.592
 3058DOPC   D2B35962  13.969  14.924  13.152
 3058DOPC   C3B35963  14.279  14.954  12.852
 3058DOPC   C4B35964  14.559  15.304  12.742
 3059DOPC   NC335965  13.349  12.934  10.262
 3059DOPC   PO435966  13.769  12.794  10.422
 3059DOPC   GL135967  13.599  13.034  10.762
 3059DOPC   GL235968  13.209  13.054  10.792
 3059DOPC   C1A35969  13.579  13.424  10.802
 3059DOPC   D2A35970  13.709  13.884  11.022
 3059DOPC   C3A35971  13.779  13.884  11.562
 3059DOPC   C4A35972  14.139  13.874  11.752
 3059DOPC   C1B35973  13.109  13.344  10.942
 3059DOPC   D2B35974  12.839  13.414  11.322
 3059DOPC   C3B35975  13.019  13.304  11.662
 3059DOPC   C4B35976  13.469  13.074  11.712
 3060DOPC   NC335977   8.349  16.654  11.772
 3060DOPC   PO435978   8.219  16.924  11.412
 3060DOPC   GL135979   8.299  17.224  11.782
 3060DOPC   GL235980   8.559  17.454  11.782
 3060DOPC   C1A35981   8.259  17.434  12.252
 3060DOPC   D2A35982   8.109  17.264  12.612
 3060DOPC   C3A35983   7.969  17.164  13.042
 3060DOPC   C4A35984   7.549  16.984  13.302
 3060DOPC   C1B35985   8.869  17.754  11.902
 3060DOPC   D2B35986   9.099  17.764  12.382
 3060DOPC   C3B35987   9.509  17.534  12.432
 3060DOPC   C4B35988   9.929  17.624  12.512
 3061DOPC   NC335989   9.469  17.364  11.002
 3061DOPC   PO435990   9.849  17.264  10.832
 3061DOPC   GL135991   9.949  17.394  11.232
 3061DOPC   GL235992  10.059  17.174  11.362
 3061DOPC   C1A35993   9.689  17.364  11.642
 3061DOPC   D2A35994   9.329  17.484  11.892
 3061DOPC   C3A35995   9.189  17.244  12.172
 3061DOPC   C4A35996   9.109  17.224  12.592
 3061DOPC   C1B35997  10.309  17.304  11.692
 3061DOPC   D2B35998  10.639  17.454  11.942
 3061DOPC   C3B35999  10.709  17.374  12.352
 3061DOPC   C4B36000  11.039  17.514  12.552
 3062DOPC   NC336001   0.919  10.384  15.232
 3062DOPC   PO436002   1.349  10.404  15.072
 3062DOPC   GL136003   1.469  10.594  14.672
 3062DOPC   GL236004   1.699  10.874  14.652
 3062DOPC   C1A36005   1.209  10.734  14.372
 3062DOPC   D2A36006   0.759  10.804  14.202
 3062DOPC   C3A36007   0.699  10.474  13.922
 3062DOPC   C4A36008   0.739  10.304  13.572
 3062DOPC   C1B36009   1.629  10.964  14.252
 3062DOPC   D2B36010   1.619  11.194  13.842
 3062DOPC   C3B36011   1.559  10.994  13.512
 3062DOPC   C4B36012   1.829  10.704  13.332
 3063DOPC   NC336013  24.069  21.174  12.242
 3063DOPC   PO436014  24.359  20.774  12.302
 3063DOPC   GL136015  24.389  20.654  12.722
 3063DOPC   GL236016  24.269  20.394  12.842
 3063DOPC   C1A36017  24.669  20.564  13.052
 3063DOPC   D2A36018  24.969  20.234  13.232
 3063DOPC   C3A36019  25.359  20.324  13.162
 3063DOPC   C4A36020  25.549  20.314  12.812
 3063DOPC   C1B36021  24.219  20.624  13.242
 3063DOPC   D2B36022  24.059  20.684  13.562
 3063DOPC   C3B36023  24.229  20.694  13.922
 3063DOPC   C4B36024  24.209  20.984  14.232
 3064DOPC   NC336025   9.649   2.704  14.832
 3064DOPC   PO436026   9.899   2.454  14.682
 3064DOPC   GL136027   9.929   2.044  14.272
 3064DOPC   GL236028   9.789   1.784  14.032
 3064DOPC   C1A36029   9.849   2.244  13.792
 3064DOPC   D2A36030   9.939   2.314  13.272
 3064DOPC   C3A36031  10.139   2.654  13.032
 3064DOPC   C4A36032  10.469   3.064  13.032
 3064DOPC   C1B36033  10.279   1.804  14.032
 3064DOPC   D2B36034  10.629   1.634  13.732
 3064DOPC   C3B36035  10.749   1.794  13.312
 3064DOPC   C4B36036  10.809   1.784  12.802
 3065DOPC   NC336037   1.939  18.694  11.632
 3065DOPC   PO436038   1.749  18.364  11.682
 3065DOPC   GL136039   1.919  18.434  12.072
 3065DOPC   GL236040   1.609  18.324  12.262
 3065DOPC   C1A36041   2.219  18.194  12.402
 3065DOPC   D2A36042   2.099  17.914  12.662
 3065DOPC   C3A36043   2.349  17.974  12.992
 3065DOPC   C4A36044   2.359  17.854  13.382
 3065DOPC   C1B36045   1.719  18.524  12.682
 3065DOPC   D2B36046   1.939  18.314  13.102
 3065DOPC   C3B36047   1.649  18.374  13.412
 3065DOPC   C4B36048   1.589  18.704  13.752
 3066DOPC   NC336049  21.939  21.451  16.002
 3066DOPC   PO436050  21.949  21.214  15.652
 3066DOPC   GL136051  21.899  20.944  15.362
 3066DOPC   GL236052  22.009  21.204  15.182
 3066DOPC   C1A36053  22.019  20.654  15.042
 3066DOPC   D2A36054  21.879  20.454  14.722
 3066DOPC   C3A36055  21.429  20.704  14.562
 3066DOPC   C4A36056  21.249  20.814  14.242
 3066DOPC   C1B36057  21.599  21.421  15.112
 3066DOPC   D2B36058  21.389  21.751  14.872
 3066DOPC   C3B36059  21.709  22.021  14.792
 3066DOPC   C4B36060  21.829  22.331  14.502
 3067DOPC   NC336061  10.579   9.274  14.442
 3067DOPC   PO436062  10.989   9.624  14.182
 3067DOPC   GL136063  10.799   9.794  13.732
 3067DOPC   GL236064  11.019   9.514  13.662
 3067DOPC   C1A36065  10.509   9.754  13.212
 3067DOPC   D2A36066  10.599   9.504  12.902
 3067DOPC   C3A36067  10.339   9.114  12.952
 3067DOPC   C4A36068  10.149   8.934  13.382
 3067DOPC   C1B36069  10.599   9.314  13.502
 3067DOPC   D2B36070  10.129   9.404  13.392
 3067DOPC   C3B36071  10.089   9.494  12.952
 3067DOPC   C4B36072   9.979   9.424  12.552
 3068DOPC   NC336073  15.509  21.501  11.722
 3068DOPC   PO436074  15.159  21.324  11.882
 3068DOPC   GL136075  15.269  21.354  12.262
 3068DOPC   GL236076  15.349  21.811  12.152
 3068DOPC   C1A36077  15.439  21.204  12.592
 3068DOPC   D2A36078  15.179  21.074  12.932
 3068DOPC   C3A36079  15.069  20.674  13.112
 3068DOPC   C4A36080  14.979  20.294  12.882
 3068DOPC   C1B36081  15.459  21.751  12.522
 3068DOPC   D2B36082  15.219  21.581  12.932
 3068DOPC   C3B36083  15.259  21.491  13.342
 3068DOPC   C4B36084  15.149  21.284  13.752
 3069DOPC   NC336085  11.069  15.784  10.332
 3069DOPC   PO436086  11.269  15.874  10.802
 3069DOPC   GL136087  11.349  15.764  11.112
 3069DOPC   GL236088  11.689  15.614  11.092
 3069DOPC   C1A36089  11.119  15.824  11.502
 3069DOPC   D2A36090  10.709  15.994  11.512
 3069DOPC   C3A36091  10.599  16.264  11.792
 3069DOPC   C4A36092  10.329  16.354  12.042
 3069DOPC   C1B36093  11.469  15.364  11.472
 3069DOPC   D2B36094  11.319  15.324  11.822
 3069DOPC   C3B36095  11.559  15.044  12.032
 3069DOPC   C4B36096  11.669  14.764  12.402
 3070DOPC   NC336097  25.996  24.811  15.912
 3070DOPC   PO436098  26.056  24.591  15.522
 3070DOPC   GL136099  25.746  24.661  15.222
 3070DOPC   GL236100  25.479  24.401  15.202
 3070DOPC   C1A36101  25.399  24.761  14.882
 3070DOPC   D2A36102  24.939  24.671  14.642
 3070DOPC   C3A36103  24.959  24.871  14.252
 3070DOPC   C4A36104  25.159  24.791  14.002
 3070DOPC   C1B36105  25.599  24.301  14.832
 3070DOPC   D2B36106  25.539  24.111  14.352
 3070DOPC   C3B36107  25.409  23.851  14.132
 3070DOPC   C4B36108  25.279  23.581  13.852
 3071DOPC   NC336109   5.359   4.684  15.002
 3071DOPC   PO436110   5.279   4.274  15.072
 3071DOPC   GL136111   5.309   4.204  14.702
 3071DOPC   GL236112   5.359   4.004  14.472
 3071DOPC   C1A36113   5.529   4.434  14.282
 3071DOPC   D2A36114   5.499   4.574  13.782
 3071DOPC   C3A36115   5.849   4.664  13.542
 3071DOPC   C4A36116   5.819   4.714  13.092
 3071DOPC   C1B36117   5.009   3.894  14.132
 3071DOPC   D2B36118   4.999   3.934  13.702
 3071DOPC   C3B36119   5.099   4.354  13.532
 3071DOPC   C4B36120   5.389   4.524  13.272
 3072DOPC   NC336121  19.759  14.844  11.732
 3072DOPC   PO436122  20.189  14.934  11.692
 3072DOPC   GL136123  20.149  14.734  12.142
 3072DOPC   GL236124  20.089  15.034  12.302
 3072DOPC   C1A36125  19.819  14.534  12.562
 3072DOPC   D2A36126  19.539  14.234  12.772
 3072DOPC   C3A36127  19.579  14.404  13.262
 3072DOPC   C4A36128  19.559  14.034  13.512
 3072DOPC   C1B36129  20.159  14.894  12.682
 3072DOPC   D2B36130  20.169  15.024  13.072
 3072DOPC   C3B36131  20.069  14.784  13.362
 3072DOPC   C4B36132  20.019  14.744  13.822
 3073DOPC   NC336133   1.799  20.784  15.362
 3073DOPC   PO436134   2.119  21.044  15.072
 3073DOPC   GL136135   2.299  21.074  14.662
 3073DOPC   GL236136   2.149  21.401  14.692
 3073DOPC   C1A36137   2.219  21.134  14.222
 3073DOPC   D2A36138   2.239  21.461  13.842
 3073DOPC   C3A36139   2.279  21.581  13.432
 3073DOPC   C4A36140   2.419  21.471  13.012
 3073DOPC   C1B36141   2.489  21.471  14.412
 3073DOPC   D2B36142   2.659  21.681  14.032
 3073DOPC   C3B36143   2.449  21.941  13.772
 3073DOPC   C4B36144   1.959  21.841  13.722
 3074DOPC   NC336145   9.319  17.534  15.222
 3074DOPC   PO436146   9.439  17.734  14.822
 3074DOPC   GL136147   9.339  17.794  14.552
 3074DOPC   GL236148   9.569  17.904  14.332
 3074DOPC   C1A36149   8.999  17.954  14.352
 3074DOPC   D2A36150   9.139  18.294  14.252
 3074DOPC   C3A36151   9.409  18.294  13.842
 3074DOPC   C4A36152   9.649  18.314  13.472
 3074DOPC   C1B36153   9.449  17.834  14.032
 3074DOPC   D2B36154   9.379  17.734  13.562
 3074DOPC   C3B36155   9.209  17.814  13.132
 3074DOPC   C4B36156   9.149  17.994  12.792
 3075DOPC   NC336157  22.749   0.674  11.872
 3075DOPC   PO436158  23.099   0.534  12.132
 3075DOPC   GL136159  23.269   0.624  12.562
 3075DOPC   GL236160  23.429   0.264  12.652
 3075DOPC   C1A36161  23.239   0.684  12.922
 3075DOPC   D2A36162  23.439   0.764  13.252
 3075DOPC   C3A36163  23.889   1.104  13.012
 3075DOPC   C4A36164  24.179   1.214  12.722
 3075DOPC   C1B36165  23.839   0.144  12.632
 3075DOPC   D2B36166  24.099   0.194  12.962
 3075DOPC   C3B36167  23.659   0.254  13.152
 3075DOPC   C4B36168  23.119   0.314  13.162
 3076DOPC   NC336169  25.289   8.434  15.952
 3076DOPC   PO436170  25.209   8.164  15.482
 3076DOPC   GL136171  25.169   8.454  15.082
 3076DOPC   GL236172  25.409   8.384  14.972
 3076DOPC   C1A36173  24.909   8.544  14.722
 3076DOPC   D2A36174  24.979   8.654  14.302
 3076DOPC   C3A36175  24.899   8.504  14.012
 3076DOPC   C4A36176  24.769   8.434  13.702
 3076DOPC   C1B36177  25.439   8.604  14.562
 3076DOPC   D2B36178  25.569   8.494  14.112
 3076DOPC   C3B36179  25.279   8.164  13.882
 3076DOPC   C4B36180  24.989   8.014  13.522
 3077DOPC   NC336181  -0.159   0.564  12.182
 3077DOPC   PO436182   0.269   0.624  11.902
 3077DOPC   GL136183   0.249   0.834  12.212
 3077DOPC   GL236184   0.149   0.674  12.512
 3077DOPC   C1A36185   0.429   1.014  12.702
 3077DOPC   D2A36186   0.439   1.044  13.112
 3077DOPC   C3A36187   0.869   1.154  13.262
 3077DOPC   C4A36188   1.139   1.074  13.632
 3077DOPC   C1B36189   0.469   0.484  12.842
 3077DOPC   D2B36190   0.859   0.464  13.192
 3077DOPC   C3B36191   0.709   0.534  13.642
 3077DOPC   C4B36192   0.369   0.374  13.932
 3078DOPC   NC336193  15.019   8.764  10.332
 3078DOPC   PO436194  15.299   9.024  10.432
 3078DOPC   GL136195  15.229   8.754  10.742
 3078DOPC   GL236196  15.019   8.524  10.762
 3078DOPC   C1A36197  15.149   8.884  11.222
 3078DOPC   D2A36198  15.249   9.014  11.812
 3078DOPC   C3A36199  15.339   9.384  11.992
 3078DOPC   C4A36200  15.579   9.694  12.142
 3078DOPC   C1B36201  14.679   8.824  11.032
 3078DOPC   D2B36202  14.269   8.874  11.272
 3078DOPC   C3B36203  14.299   8.994  11.772
 3078DOPC   C4B36204  14.299   8.884  12.202
 3079DOPC   NC336205  14.579  19.344  11.632
 3079DOPC   PO436206  14.989  19.264  11.562
 3079DOPC   GL136207  15.009  19.504  11.942
 3079DOPC   GL236208  15.259  19.734  12.002
 3079DOPC   C1A36209  14.709  19.694  12.232
 3079DOPC   D2A36210  14.469  19.614  12.502
 3079DOPC   C3A36211  14.649  19.404  12.782
 3079DOPC   C4A36212  14.899  19.154  12.872
 3079DOPC   C1B36213  15.359  19.834  12.422
 3079DOPC   D2B36214  15.379  20.024  12.762
 3079DOPC   C3B36215  15.849  20.204  12.982
 3079DOPC   C4B36216  16.119  20.484  13.212
 3080DOPC   NC336217  -0.209   8.464  11.352
 3080DOPC   PO436218  -0.209   8.644  11.792
 3080DOPC   GL136219  -0.289   8.464  12.142
 3080DOPC   GL236220   0.041   8.544  12.232
 3080DOPC   C1A36221  -0.419   8.504  12.522
 3080DOPC   D2A36222  -0.219   8.604  12.952
 3080DOPC   C3A36223  -0.069   8.144  13.152
 3080DOPC   C4A36224  -0.049   7.824  13.572
 3080DOPC   C1B36225   0.329   8.164  12.202
 3080DOPC   D2B36226   0.619   7.934  12.402
 3080DOPC   C3B36227   0.849   8.114  12.772
 3080DOPC   C4B36228   1.009   8.434  12.902
 3081DOPC   NC336229  23.879  15.664  15.692
 3081DOPC   PO436230  23.419  15.624  15.582
 3081DOPC   GL136231  23.639  15.764  15.092
 3081DOPC   GL236232  23.639  16.124  15.012
 3081DOPC   C1A36233  23.969  15.774  14.712
 3081DOPC   D2A36234  24.489  15.794  14.562
 3081DOPC   C3A36235  24.769  15.894  14.852
 3081DOPC   C4A36236  25.019  16.274  15.102
 3081DOPC   C1B36237  23.299  16.284  14.822
 3081DOPC   D2B36238  23.099  16.164  14.382
 3081DOPC   C3B36239  23.049  15.764  14.292
 3081DOPC   C4B36240  22.609  15.504  14.112
 3082DOPC   NC336241  17.829  23.521  15.992
 3082DOPC   PO436242  17.599  23.081  15.942
 3082DOPC   GL136243  17.429  23.011  15.482
 3082DOPC   GL236244  17.219  22.761  15.332
 3082DOPC   C1A36245  17.249  23.211  15.162
 3082DOPC   D2A36246  16.949  23.231  14.932
 3082DOPC   C3A36247  16.969  23.171  14.512
 3082DOPC   C4A36248  16.889  23.261  14.032
 3082DOPC   C1B36249  16.929  22.701  14.932
 3082DOPC   D2B36250  16.909  22.501  14.572
 3082DOPC   C3B36251  16.699  22.121  14.312
 3082DOPC   C4B36252  16.649  21.781  13.972
 3083DOPC   NC336253  15.149  24.461  11.142
 3083DOPC   PO436254  15.389  24.401  11.552
 3083DOPC   GL136255  15.339  24.471  11.892
 3083DOPC   GL236256  15.589  24.491  12.172
 3083DOPC   C1A36257  15.029  24.591  12.262
 3083DOPC   D2A36258  14.609  24.701  12.392
 3083DOPC   C3A36259  14.499  24.531  12.822
 3083DOPC   C4A36260  14.609  24.541  13.192
 3083DOPC   C1B36261  15.389  24.321  12.552
 3083DOPC   D2B36262  15.029  24.421  12.752
 3083DOPC   C3B36263  15.109  24.181  13.122
 3083DOPC   C4B36264  15.479  24.341  13.362
 3084DOPC   NC336265  22.689  14.554  11.992
 3084DOPC   PO436266  22.339  14.654  12.202
 3084DOPC   GL136267  22.319  14.554  12.642
 3084DOPC   GL236268  22.419  14.224  12.732
 3084DOPC   C1A36269  22.289  14.504  13.082
 3084DOPC   D2A36270  22.459  14.174  13.282
 3084DOPC   C3A36271  22.339  13.884  13.672
 3084DOPC   C4A36272  22.089  13.554  13.552
 3084DOPC   C1B36273  22.889  14.094  12.812
 3084DOPC   D2B36274  23.279  14.054  12.972
 3084DOPC   C3B36275  23.339  13.924  13.422
 3084DOPC   C4B36276  23.379  13.564  13.752
 3085DOPC   NC336277  22.469   0.774  15.672
 3085DOPC   PO436278  22.739   0.554  15.882
 3085DOPC   GL136279  22.829   0.534  15.442
 3085DOPC   GL236280  23.119   0.484  15.332
 3085DOPC   C1A36281  22.799   0.284  15.042
 3085DOPC   D2A36282  22.789   0.044  14.552
 3085DOPC   C3A36283  22.469   0.114  14.342
 3085DOPC   C4A36284  22.229  -0.106  13.992
 3085DOPC   C1B36285  23.249   0.294  14.902
 3085DOPC   D2B36286  23.249  -0.056  14.472
 3085DOPC   C3B36287  23.589  -0.466  14.432
 3085DOPC   C4B36288  23.729  -0.826  14.212
 3086DOPC   NC336289  23.439   2.854  15.792
 3086DOPC   PO436290  23.379   2.424  15.572
 3086DOPC   GL136291  23.229   2.484  15.122
 3086DOPC   GL236292  22.879   2.284  15.052
 3086DOPC   C1A36293  23.339   2.214  14.832
 3086DOPC   D2A36294  23.499   1.734  14.632
 3086DOPC   C3A36295  23.689   1.604  14.282
 3086DOPC   C4A36296  23.929   1.364  13.922
 3086DOPC   C1B36297  22.659   2.494  14.852
 3086DOPC   D2B36298  22.279   2.714  14.622
 3086DOPC   C3B36299  22.209   2.734  14.122
 3086DOPC   C4B36300  21.979   2.984  13.812
 3087DOPC   NC336301  20.599  13.604  11.722
 3087DOPC   PO436302  20.679  13.964  12.072
 3087DOPC   GL136303  20.719  13.664  12.282
 3087DOPC   GL236304  20.449  13.524  12.202
 3087DOPC   C1A36305  20.659  13.514  12.622
 3087DOPC   D2A36306  20.379  13.544  13.002
 3087DOPC   C3A36307  20.289  13.064  13.182
 3087DOPC   C4A36308  20.369  12.704  12.862
 3087DOPC   C1B36309  20.099  13.604  12.472
 3087DOPC   D2B36310  19.959  13.884  12.812
 3087DOPC   C3B36311  20.039  14.284  13.022
 3087DOPC   C4B36312  20.399  14.434  12.982
 3088DOPC   NC336313   8.479  15.634  11.142
 3088DOPC   PO436314   8.769  15.304  10.992
 3088DOPC   GL136315   8.909  15.344  11.362
 3088DOPC   GL236316   8.959  15.614  11.392
 3088DOPC   C1A36317   9.019  15.204  11.802
 3088DOPC   D2A36318   9.079  15.144  12.272
 3088DOPC   C3A36319   9.169  15.524  12.532
 3088DOPC   C4A36320   9.419  15.764  12.842
 3088DOPC   C1B36321   8.999  15.854  11.882
 3088DOPC   D2B36322   9.089  16.214  12.182
 3088DOPC   C3B36323   9.199  16.154  12.502
 3088DOPC   C4B36324   9.579  16.184  12.662
 3089DOPC   NC336325   7.989  24.051  10.832
 3089DOPC   PO436326   7.809  23.831  11.222
 3089DOPC   GL136327   7.969  23.951  11.652
 3089DOPC   GL236328   7.599  23.881  11.772
 3089DOPC   C1A36329   7.949  24.081  12.082
 3089DOPC   D2A36330   7.949  24.051  12.512
 3089DOPC   C3A36331   7.539  23.911  12.642
 3089DOPC   C4A36332   7.649  23.781  13.192
 3089DOPC   C1B36333   7.609  23.701  12.172
 3089DOPC   D2B36334   7.819  23.501  12.462
 3089DOPC   C3B36335   7.629  23.271  12.772
 3089DOPC   C4B36336   7.649  22.771  12.892
 3090DOPC   NC336337  10.569  15.644  11.152
 3090DOPC   PO436338  10.149  15.514  11.172
 3090DOPC   GL136339  10.309  15.614  11.562
 3090DOPC   GL236340  10.699  15.494  11.632
 3090DOPC   C1A36341  10.299  15.314  11.882
 3090DOPC   D2A36342  10.599  14.984  11.992
 3090DOPC   C3A36343  10.709  14.884  12.392
 3090DOPC   C4A36344  10.979  14.604  12.612
 3090DOPC   C1B36345  10.859  15.364  12.072
 3090DOPC   D2B36346  10.869  15.384  12.472
 3090DOPC   C3B36347  10.999  15.054  12.772
 3090DOPC   C4B36348  11.389  14.854  12.782
 3091DOPC   NC336349  18.409   0.504  16.472
 3091DOPC   PO436350  18.179   0.214  16.182
 3091DOPC   GL136351  18.219   0.054  15.692
 3091DOPC   GL236352  18.369   0.224  15.482
 3091DOPC   C1A36353  18.029  -0.176  15.372
 3091DOPC   D2A36354  17.949  -0.276  15.012
 3091DOPC   C3A36355  17.909  -0.066  14.582
 3091DOPC   C4A36356  17.899   0.354  14.272
 3091DOPC   C1B36357  18.639   0.444  15.192
 3091DOPC   D2B36358  18.989   0.494  15.072
 3091DOPC   C3B36359  19.139   0.774  14.782
 3091DOPC   C4B36360  19.419   0.924  14.492
 3092DOPC   NC336361   3.719  18.684  12.102
 3092DOPC   PO436362   3.849  18.364  11.872
 3092DOPC   GL136363   4.009  18.304  12.242
 3092DOPC   GL236364   3.739  18.164  12.432
 3092DOPC   C1A36365   4.149  18.504  12.582
 3092DOPC   D2A36366   4.309  18.924  12.752
 3092DOPC   C3A36367   4.399  19.064  13.132
 3092DOPC   C4A36368   4.399  19.444  13.222
 3092DOPC   C1B36369   3.629  18.524  12.712
 3092DOPC   D2B36370   3.689  18.504  13.232
 3092DOPC   C3B36371   3.829  18.874  13.562
 3092DOPC   C4B36372   4.029  19.204  13.472
 3093DOPC   NC336373  11.409  18.084  14.512
 3093DOPC   PO436374  11.269  18.494  14.752
 3093DOPC   GL136375  11.139  18.534  14.402
 3093DOPC   GL236376  11.369  18.484  14.182
 3093DOPC   C1A36377  10.979  18.764  14.032
 3093DOPC   D2A36378  10.839  18.884  13.672
 3093DOPC   C3A36379  11.219  18.924  13.372
 3093DOPC   C4A36380  11.429  19.014  13.042
 3093DOPC   C1B36381  11.489  18.814  13.882
 3093DOPC   D2B36382  11.709  19.004  13.522
 3093DOPC   C3B36383  11.849  18.844  13.222
 3093DOPC   C4B36384  11.899  18.524  12.892
 3094DOPC   NC336385   5.689  17.794  11.422
 3094DOPC   PO436386   5.549  17.494  11.702
 3094DOPC   GL136387   5.569  17.404  12.172
 3094DOPC   GL236388   5.469  17.154  12.442
 3094DOPC   C1A36389   5.509  17.704  12.452
 3094DOPC   D2A36390   5.809  17.994  12.592
 3094DOPC   C3A36391   5.969  18.394  12.692
 3094DOPC   C4A36392   6.339  18.484  12.962
 3094DOPC   C1B36393   5.329  17.264  12.882
 3094DOPC   D2B36394   5.529  17.254  13.252
 3094DOPC   C3B36395   5.349  17.004  13.522
 3094DOPC   C4B36396   5.309  16.834  13.932
 3095DOPC   NC336397   3.539  19.574  15.362
 3095DOPC   PO436398   3.199  19.524  15.682
 3095DOPC   GL136399   3.099  19.574  15.152
 3095DOPC   GL236400   3.219  19.584  14.772
 3095DOPC   C1A36401   3.019  19.164  14.962
 3095DOPC   D2A36402   3.199  18.814  14.772
 3095DOPC   C3A36403   3.509  18.804  14.482
 3095DOPC   C4A36404   3.539  18.964  14.032
 3095DOPC   C1B36405   3.079  19.264  14.512
 3095DOPC   D2B36406   3.059  18.874  14.312
 3095DOPC   C3B36407   3.069  18.994  13.942
 3095DOPC   C4B36408   3.189  19.294  13.592
 3096DOPC   NC336409  25.936   5.684  10.952
 3096DOPC   PO436410  25.646   5.854  11.222
 3096DOPC   GL136411  25.559   5.874  11.652
 3096DOPC   GL236412  25.676   6.154  11.902
 3096DOPC   C1A36413  25.519   5.664  12.072
 3096DOPC   D2A36414  25.199   5.564  12.342
 3096DOPC   C3A36415  25.319   5.264  12.562
 3096DOPC   C4A36416  25.519   4.694  12.482
 3096DOPC   C1B36417  25.329   6.174  12.192
 3096DOPC   D2B36418  25.489   6.104  12.552
 3096DOPC   C3B36419  25.459   5.784  12.942
 3096DOPC   C4B36420  25.676   5.804  13.302
 3097DOPC   NC336421  14.009  11.644  10.522
 3097DOPC   PO436422  14.359  11.454  10.762
 3097DOPC   GL136423  14.109  11.664  11.052
 3097DOPC   GL236424  14.049  11.344  11.192
 3097DOPC   C1A36425  13.919  11.704  11.432
 3097DOPC   D2A36426  13.819  11.704  11.822
 3097DOPC   C3A36427  14.109  11.584  12.102
 3097DOPC   C4A36428  14.289  11.314  12.322
 3097DOPC   C1B36429  14.139  11.314  11.652
 3097DOPC   D2B36430  14.099  11.064  11.922
 3097DOPC   C3B36431  13.769  11.204  12.162
 3097DOPC   C4B36432  13.429  11.154  12.472
 3098DOPC   NC336433  24.519  19.484  16.002
 3098DOPC   PO436434  24.059  19.454  16.092
 3098DOPC   GL136435  24.019  19.234  15.702
 3098DOPC   GL236436  24.279  19.304  15.652
 3098DOPC   C1A36437  23.899  19.274  15.202
 3098DOPC   D2A36438  24.109  19.324  14.822
 3098DOPC   C3A36439  24.049  18.894  14.542
 3098DOPC   C4A36440  24.199  18.944  14.142
 3098DOPC   C1B36441  24.439  19.084  15.242
 3098DOPC   D2B36442  24.659  19.114  14.912
 3098DOPC   C3B36443  24.959  19.324  14.742
 3098DOPC   C4B36444  24.989  19.594  14.452
 3099DOPC   NC336445   6.769  16.824  10.842
 3099DOPC   PO436446   6.619  16.494  11.152
 3099DOPC   GL136447   6.649  16.154  11.392
 3099DOPC   GL236448   6.809  15.914  11.342
 3099DOPC   C1A36449   6.529  16.094  11.792
 3099DOPC   D2A36450   6.459  16.274  12.262
 3099DOPC   C3A36451   6.109  16.274  12.592
 3099DOPC   C4A36452   5.779  15.964  12.802
 3099DOPC   C1B36453   6.839  15.734  11.712
 3099DOPC   D2B36454   6.849  15.834  12.162
 3099DOPC   C3B36455   7.229  15.924  12.362
 3099DOPC   C4B36456   7.389  15.704  12.742
 3100DOPC   NC336457   3.749  25.311  11.412
 3100DOPC   PO436458   4.209  25.491  11.482
 3100DOPC   GL136459   4.489  25.441  11.872
 3100DOPC   GL236460   4.379  25.721  12.172
 3100DOPC   C1A36461   4.679  25.321  12.302
 3100DOPC   D2A36462   4.779  25.021  12.562
 3100DOPC   C3A36463   4.699  25.081  13.002
 3100DOPC   C4A36464   4.799  24.941  13.382
 3100DOPC   C1B36465   4.799  25.751  12.142
 3100DOPC   D2B36466   5.289  25.871  11.942
 3100DOPC   C3B36467   5.529  26.161  12.192
 3100DOPC   C4B36468   5.439  26.461  12.542
 3101DOPC   NC336469   4.189  22.281  12.142
 3101DOPC   PO436470   4.619  22.281  11.802
 3101DOPC   GL136471   4.589  22.031  12.142
 3101DOPC   GL236472   4.639  22.141  12.402
 3101DOPC   C1A36473   4.809  21.651  12.332
 3101DOPC   D2A36474   5.149  21.431  12.612
 3101DOPC   C3A36475   5.129  21.024  12.822
 3101DOPC   C4A36476   5.189  20.624  13.042
 3101DOPC   C1B36477   4.959  22.081  12.512
 3101DOPC   D2B36478   5.329  22.331  12.502
 3101DOPC   C3B36479   5.279  22.601  12.832
 3101DOPC   C4B36480   5.259  23.051  13.072
 3102DOPC   NC336481   6.049  23.731  15.342
 3102DOPC   PO436482   5.959  23.291  15.312
 3102DOPC   GL136483   5.789  23.321  14.892
 3102DOPC   GL236484   5.389  23.341  14.902
 3102DOPC   C1A36485   5.759  23.161  14.412
 3102DOPC   D2A36486   5.779  22.741  14.142
 3102DOPC   C3A36487   5.489  22.791  13.862
 3102DOPC   C4A36488   5.529  22.781  13.402
 3102DOPC   C1B36489   5.419  22.961  14.792
 3102DOPC   D2B36490   5.309  22.921  14.392
 3102DOPC   C3B36491   5.089  22.701  14.162
 3102DOPC   C4B36492   4.779  22.421  14.122
 3103DOPC   NC336493  17.489   9.874  14.812
 3103DOPC   PO436494  17.119  10.034  14.602
 3103DOPC   GL136495  17.009   9.974  14.222
 3103DOPC   GL236496  16.959   9.734  14.052
 3103DOPC   C1A36497  16.799  10.084  13.772
 3103DOPC   D2A36498  16.829   9.964  13.392
 3103DOPC   C3A36499  17.049  10.254  12.952
 3103DOPC   C4A36500  17.389  10.424  12.772
 3103DOPC   C1B36501  16.699   9.624  13.752
 3103DOPC   D2B36502  16.479   9.544  13.382
 3103DOPC   C3B36503  16.789   9.374  13.202
 3103DOPC   C4B36504  16.799   9.144  12.842
 3104DOPC   NC336505   5.629  14.314  11.462
 3104DOPC   PO436506   5.399  14.724  11.382
 3104DOPC   GL136507   5.459  14.604  11.852
 3104DOPC   GL236508   5.629  14.394  11.962
 3104DOPC   C1A36509   5.639  14.904  12.252
 3104DOPC   D2A36510   5.579  15.224  12.572
 3104DOPC   C3A36511   5.729  15.454  12.922
 3104DOPC   C4A36512   5.989  15.634  13.302
 3104DOPC   C1B36513   5.399  14.474  12.332
 3104DOPC   D2B36514   5.499  14.344  12.782
 3104DOPC   C3B36515   5.419  14.004  12.622
 3104DOPC   C4B36516   5.319  13.554  12.792
 3105DOPC   NC336517  22.329  16.104  11.612
 3105DOPC   PO436518  22.299  15.634  11.822
 3105DOPC   GL136519  22.269  15.524  12.292
 3105DOPC   GL236520  22.489  15.494  12.372
 3105DOPC   C1A36521  22.289  15.414  12.782
 3105DOPC   D2A36522  22.059  15.434  13.142
 3105DOPC   C3A36523  22.129  15.534  13.592
 3105DOPC   C4A36524  22.089  15.504  13.972
 3105DOPC   C1B36525  22.599  15.054  12.692
 3105DOPC   D2B36526  22.489  15.004  13.122
 3105DOPC   C3B36527  22.619  14.644  13.412
 3105DOPC   C4B36528  22.689  14.244  13.752
 3106DOPC   NC336529  12.369  14.374  14.512
 3106DOPC   PO436530  12.059  14.744  14.452
 3106DOPC   GL136531  12.189  15.064  14.122
 3106DOPC   GL236532  11.969  15.304  14.142
 3106DOPC   C1A36533  11.979  14.954  13.712
 3106DOPC   D2A36534  12.209  14.834  13.382
 3106DOPC   C3A36535  12.509  15.074  13.222
 3106DOPC   C4A36536  12.639  15.084  12.832
 3106DOPC   C1B36537  11.869  15.474  13.842
 3106DOPC   D2B36538  11.829  15.774  13.542
 3106DOPC   C3B36539  11.729  15.554  13.222
 3106DOPC   C4B36540  11.639  15.284  12.872
 3107DOPC   NC336541   5.389  24.621  11.512
 3107DOPC   PO436542   5.049  24.881  11.352
 3107DOPC   GL136543   4.949  24.871  11.762
 3107DOPC   GL236544   4.929  25.141  11.862
 3107DOPC   C1A36545   5.189  24.881  12.302
 3107DOPC   D2A36546   5.539  24.641  12.572
 3107DOPC   C3A36547   5.669  24.471  12.822
 3107DOPC   C4A36548   5.919  24.051  12.862
 3107DOPC   C1B36549   5.179  25.401  12.132
 3107DOPC   D2B36550   5.079  25.501  12.502
 3107DOPC   C3B36551   5.269  25.141  12.782
 3107DOPC   C4B36552   5.169  24.831  13.052
 3108DOPC   NC336553  19.269  13.244  11.742
 3108DOPC   PO436554  19.039  12.814  11.622
 3108DOPC   GL136555  18.799  12.924  11.972
 3108DOPC   GL236556  18.549  12.694  12.062
 3108DOPC   C1A36557  18.709  13.154  12.342
 3108DOPC   D2A36558  18.819  13.494  12.592
 3108DOPC   C3A36559  18.769  13.554  13.052
 3108DOPC   C4A36560  19.019  13.724  13.302
 3108DOPC   C1B36561  18.359  12.784  12.542
 3108DOPC   D2B36562  18.309  13.144  12.622
 3108DOPC   C3B36563  18.319  13.614  12.522
 3108DOPC   C4B36564  18.339  13.884  12.802
 3109DOPC   NC336565  10.929   8.344  14.752
 3109DOPC   PO436566  10.479   8.344  14.562
 3109DOPC   GL136567  10.669   8.054  14.322
 3109DOPC   GL236568  10.499   8.154  14.052
 3109DOPC   C1A36569  10.919   7.814  14.002
 3109DOPC   D2A36570  10.979   7.754  13.522
 3109DOPC   C3A36571  11.019   8.004  13.162
 3109DOPC   C4A36572  11.099   7.874  12.632
 3109DOPC   C1B36573  10.649   8.144  13.622
 3109DOPC   D2B36574  10.559   8.284  13.192
 3109DOPC   C3B36575  10.619   8.074  12.822
 3109DOPC   C4B36576  10.469   7.694  12.752
 3110DOPC   NC336577   5.309  15.234  11.192
 3110DOPC   PO436578   5.619  15.594  11.302
 3110DOPC   GL136579   5.989  15.554  11.492
 3110DOPC   GL236580   6.229  15.824  11.452
 3110DOPC   C1A36581   5.909  15.394  11.892
 3110DOPC   D2A36582   6.079  15.214  12.322
 3110DOPC   C3A36583   6.479  15.384  12.452
 3110DOPC   C4A36584   6.839  15.534  12.602
 3110DOPC   C1B36585   6.489  15.354  11.432
 3110DOPC   D2B36586   6.819  15.164  11.612
 3110DOPC   C3B36587   7.059  14.844  11.652
 3110DOPC   C4B36588   6.679  14.614  11.612
 3111DOPC   NC336589  13.209   2.034  10.982
 3111DOPC   PO436590  13.219   2.504  10.892
 3111DOPC   GL136591  13.039   2.684  11.312
 3111DOPC   GL236592  12.919   2.944  11.432
 3111DOPC   C1A36593  12.949   2.574  11.792
 3111DOPC   D2A36594  12.689   2.164  11.912
 3111DOPC   C3A36595  12.869   1.904  12.172
 3111DOPC   C4A36596  13.099   1.564  12.122
 3111DOPC   C1B36597  12.589   2.634  11.492
 3111DOPC   D2B36598  12.329   2.354  11.462
 3111DOPC   C3B36599  12.519   2.014  11.452
 3111DOPC   C4B36600  12.919   1.834  11.652
 3112DOPC   NC336601  24.159  16.814  12.202
 3112DOPC   PO436602  24.469  16.534  12.192
 3112DOPC   GL136603  24.529  16.244  12.492
 3112DOPC   GL236604  24.749  16.344  12.682
 3112DOPC   C1A36605  24.439  16.104  12.962
 3112DOPC   D2A36606  24.059  16.074  13.282
 3112DOPC   C3A36607  23.819  15.764  13.112
 3112DOPC   C4A36608  23.499  15.824  12.812
 3112DOPC   C1B36609  24.799  16.484  13.122
 3112DOPC   D2B36610  24.739  16.914  13.362
 3112DOPC   C3B36611  24.979  17.254  13.252
 3112DOPC   C4B36612  25.259  17.564  13.312
 3113DOPC   NC336613   5.969   9.624  15.542
 3113DOPC   PO436614   5.909   9.784  15.082
 3113DOPC   GL136615   5.849   9.764  14.592
 3113DOPC   GL236616   5.929   9.974  14.422
 3113DOPC   C1A36617   5.569   9.664  14.182
 3113DOPC   D2A36618   5.599   9.394  13.812
 3113DOPC   C3A36619   5.799   8.994  13.602
 3113DOPC   C4A36620   5.689   8.784  13.252
 3113DOPC   C1B36621   6.199  10.194  14.122
 3113DOPC   D2B36622   6.469  10.494  13.972
 3113DOPC   C3B36623   6.629  10.384  13.612
 3113DOPC   C4B36624   6.779  10.644  13.212
 3114DOPC   NC336625   0.249  10.274  10.962
 3114DOPC   PO436626   0.159  10.294  11.452
 3114DOPC   GL136627   0.229  10.454  11.922
 3114DOPC   GL236628   0.529  10.374  11.932
 3114DOPC   C1A36629   0.011  10.354  12.332
 3114DOPC   D2A36630  -0.129  10.424  12.742
 3114DOPC   C3A36631  -0.099  10.424  13.152
 3114DOPC   C4A36632   0.239  10.284  13.532
 3114DOPC   C1B36633   0.619  10.634  12.362
 3114DOPC   D2B36634   0.429  10.754  12.722
 3114DOPC   C3B36635   0.041  10.874  12.742
 3114DOPC   C4B36636  -0.049  10.854  12.272
 3115DOPC   NC336637  19.319   0.814  12.042
 3115DOPC   PO436638  19.769   0.804  12.062
 3115DOPC   GL136639  19.609   0.864  12.552
 3115DOPC   GL236640  19.369   0.604  12.642
 3115DOPC   C1A36641  19.779   1.004  12.952
 3115DOPC   D2A36642  19.959   1.034  13.322
 3115DOPC   C3A36643  20.409   1.004  13.332
 3115DOPC   C4A36644  20.699   1.064  13.702
 3115DOPC   C1B36645  19.419   0.654  13.072
 3115DOPC   D2B36646  19.449   0.494  13.382
 3115DOPC   C3B36647  19.849   0.634  13.592
 3115DOPC   C4B36648  20.239   0.814  13.772
 3116DOPC   NC336649   5.979   8.294  15.082
 3116DOPC   PO436650   6.199   8.674  15.162
 3116DOPC   GL136651   6.069   8.844  14.802
 3116DOPC   GL236652   5.739   8.914  14.762
 3116DOPC   C1A36653   6.299   9.044  14.372
 3116DOPC   D2A36654   6.509   9.334  13.982
 3116DOPC   C3A36655   6.619   9.444  13.532
 3116DOPC   C4A36656   6.669   9.574  13.112
 3116DOPC   C1B36657   5.719   9.194  14.322
 3116DOPC   D2B36658   6.059   9.194  13.952
 3116DOPC   C3B36659   6.099   9.454  13.642
 3116DOPC   C4B36660   6.279   9.804  13.362
 3117DOPC   NC336661  10.599  23.501  11.502
 3117DOPC   PO436662  10.209  23.621  11.342
 3117DOPC   GL136663  10.389  23.851  11.792
 3117DOPC   GL236664  10.199  23.541  11.892
 3117DOPC   C1A36665  10.419  23.911  12.262
 3117DOPC   D2A36666  10.339  24.241  12.592
 3117DOPC   C3A36667  10.389  24.051  13.012
 3117DOPC   C4A36668  10.319  23.821  13.372
 3117DOPC   C1B36669  10.159  23.511  12.362
 3117DOPC   D2B36670  10.019  23.831  12.572
 3117DOPC   C3B36671   9.729  23.791  12.892
 3117DOPC   C4B36672   9.489  24.051  13.222
 3118DOPC   NC336673  20.399  15.994  11.912
 3118DOPC   PO436674  20.279  16.024  12.282
 3118DOPC   GL136675  20.039  16.134  12.542
 3118DOPC   GL236676  20.009  16.344  12.822
 3118DOPC   C1A36677  19.979  15.864  12.892
 3118DOPC   D2A36678  19.739  15.564  13.192
 3118DOPC   C3A36679  19.769  15.234  13.382
 3118DOPC   C4A36680  19.549  14.854  13.452
 3118DOPC   C1B36681  19.779  16.444  13.182
 3118DOPC   D2B36682  19.779  16.794  13.502
 3118DOPC   C3B36683  19.809  16.604  13.862
 3118DOPC   C4B36684  19.639  16.674  14.402
 3119DOPC   NC336685   5.479   5.614  15.122
 3119DOPC   PO436686   5.229   6.044  15.172
 3119DOPC   GL136687   5.219   5.864  14.672
 3119DOPC   GL236688   5.429   5.774  14.392
 3119DOPC   C1A36689   5.229   6.184  14.282
 3119DOPC   D2A36690   5.499   6.344  13.922
 3119DOPC   C3A36691   5.999   6.454  13.902
 3119DOPC   C4A36692   6.139   6.844  13.642
 3119DOPC   C1B36693   5.519   5.584  13.982
 3119DOPC   D2B36694   5.549   5.734  13.612
 3119DOPC   C3B36695   5.279   6.044  13.432
 3119DOPC   C4B36696   5.149   6.474  13.382
 3120DOPC   NC336697  23.949  10.444  15.522
 3120DOPC   PO436698  23.949   9.954  15.762
 3120DOPC   GL136699  23.819   9.934  15.352
 3120DOPC   GL236700  24.039   9.634  15.322
 3120DOPC   C1A36701  23.879   9.964  14.922
 3120DOPC   D2A36702  23.669  10.084  14.632
 3120DOPC   C3A36703  23.699  10.124  14.152
 3120DOPC   C4A36704  24.049  10.264  13.882
 3120DOPC   C1B36705  23.919   9.284  15.002
 3120DOPC   D2B36706  24.009   9.144  14.542
 3120DOPC   C3B36707  23.659   9.104  14.292
 3120DOPC   C4B36708  23.219   9.114  14.322
 3121DOPC   NC336709   8.579  15.224  14.982
 3121DOPC   PO436710   8.119  15.174  14.902
 3121DOPC   GL136711   7.939  15.044  14.482
 3121DOPC   GL236712   7.559  14.974  14.422
 3121DOPC   C1A36713   7.889  15.074  14.012
 3121DOPC   D2A36714   8.159  15.024  13.622
 3121DOPC   C3A36715   7.929  14.964  13.322
 3121DOPC   C4A36716   7.579  14.704  13.122
 3121DOPC   C1B36717   7.369  15.034  14.032
 3121DOPC   D2B36718   7.059  15.054  13.682
 3121DOPC   C3B36719   6.929  15.394  13.412
 3121DOPC   C4B36720   6.969  15.424  13.082
 3122DOPC   NC336721  22.629   4.454  11.202
 3122DOPC   PO436722  22.789   4.304  11.662
 3122DOPC   GL136723  23.069   4.574  11.952
 3122DOPC   GL236724  23.399   4.564  11.862
 3122DOPC   C1A36725  23.079   4.704  12.432
 3122DOPC   D2A36726  23.129   4.684  12.882
 3122DOPC   C3A36727  23.149   4.804  13.272
 3122DOPC   C4A36728  22.959   4.684  13.582
 3122DOPC   C1B36729  23.529   4.884  12.222
 3122DOPC   D2B36730  23.759   4.954  12.432
 3122DOPC   C3B36731  23.709   4.874  12.882
 3122DOPC   C4B36732  23.539   5.154  13.202
 3123DOPC   NC336733  19.449  18.564  12.142
 3123DOPC   PO436734  19.229  18.974  12.192
 3123DOPC   GL136735  19.439  18.984  12.502
 3123DOPC   GL236736  19.759  19.004  12.582
 3123DOPC   C1A36737  19.469  19.004  12.972
 3123DOPC   D2A36738  19.499  18.954  13.452
 3123DOPC   C3A36739  19.679  19.234  13.742
 3123DOPC   C4A36740  19.819  19.424  14.002
 3123DOPC   C1B36741  19.959  18.964  13.042
 3123DOPC   D2B36742  20.059  18.764  13.452
 3123DOPC   C3B36743  19.789  18.544  13.662
 3123DOPC   C4B36744  19.609  18.184  13.972
 3124DOPC   NC336745   9.669   2.494  10.712
 3124DOPC   PO436746   9.889   2.114  10.722
 3124DOPC   GL136747   9.639   2.094  11.022
 3124DOPC   GL236748   9.419   1.774  11.152
 3124DOPC   C1A36749   9.239   2.274  11.432
 3124DOPC   D2A36750   8.909   2.274  11.662
 3124DOPC   C3A36751   8.899   2.664  11.982
 3124DOPC   C4A36752   8.839   2.924  12.382
 3124DOPC   C1B36753   9.579   1.934  11.532
 3124DOPC   D2B36754   9.729   2.064  11.862
 3124DOPC   C3B36755   9.729   1.994  12.362
 3124DOPC   C4B36756   9.829   1.804  12.762
 3125DOPC   NC336757  22.739  25.211  16.172
 3125DOPC   PO436758  22.439  24.921  16.272
 3125DOPC   GL136759  22.399  24.721  15.912
 3125DOPC   GL236760  22.159  24.881  15.742
 3125DOPC   C1A36761  22.489  24.751  15.402
 3125DOPC   D2A36762  22.429  25.021  15.072
 3125DOPC   C3A36763  22.319  24.731  14.862
 3125DOPC   C4A36764  22.309  24.401  15.082
 3125DOPC   C1B36765  21.989  24.791  15.422
 3125DOPC   D2B36766  21.589  25.111  15.162
 3125DOPC   C3B36767  21.479  25.201  14.782
 3125DOPC   C4B36768  21.459  25.011  14.312
 3126DOPC   NC336769  24.759  18.844  12.252
 3126DOPC   PO436770  24.429  18.614  12.212
 3126DOPC   GL136771  24.359  18.844  12.582
 3126DOPC   GL236772  24.359  18.634  12.892
 3126DOPC   C1A36773  24.479  19.154  12.932
 3126DOPC   D2A36774  24.539  19.104  13.402
 3126DOPC   C3A36775  24.479  19.154  13.762
 3126DOPC   C4A36776  24.229  19.414  14.022
 3126DOPC   C1B36777  24.359  18.564  13.322
 3126DOPC   D2B36778  24.369  18.624  13.722
 3126DOPC   C3B36779  24.529  18.284  13.932
 3126DOPC   C4B36780  24.619  18.174  14.392
 3127DOPC   NC336781  22.339   6.284  11.922
 3127DOPC   PO436782  22.219   6.634  11.722
 3127DOPC   GL136783  22.329   6.824  12.092
 3127DOPC   GL236784  22.559   6.594  12.272
 3127DOPC   C1A36785  22.369   7.044  12.492
 3127DOPC   D2A36786  22.499   7.004  13.002
 3127DOPC   C3A36787  22.629   6.874  13.492
 3127DOPC   C4A36788  22.889   6.644  13.612
 3127DOPC   C1B36789  22.669   6.244  12.522
 3127DOPC   D2B36790  22.989   5.934  12.772
 3127DOPC   C3B36791  23.309   5.634  12.622
 3127DOPC   C4B36792  23.489   5.394  12.332
 3128DOPC   NC336793  24.289  15.154  11.982
 3128DOPC   PO436794  23.949  14.774  11.962
 3128DOPC   GL136795  24.099  14.764  12.382
 3128DOPC   GL236796  24.279  14.424  12.472
 3128DOPC   C1A36797  24.009  14.964  12.702
 3128DOPC   D2A36798  23.949  15.364  12.912
 3128DOPC   C3A36799  24.179  15.514  13.382
 3128DOPC   C4A36800  24.269  15.434  13.802
 3128DOPC   C1B36801  24.289  14.254  12.922
 3128DOPC   D2B36802  24.409  13.904  13.172
 3128DOPC   C3B36803  24.109  13.914  13.472
 3128DOPC   C4B36804  23.759  13.834  13.682
 3129DOPC   NC336805  11.379  23.561  15.202
 3129DOPC   PO436806  10.969  23.201  15.252
 3129DOPC   GL136807  11.109  23.351  14.822
 3129DOPC   GL236808  11.399  23.191  14.582
 3129DOPC   C1A36809  10.809  23.571  14.542
 3129DOPC   D2A36810  10.589  23.911  14.462
 3129DOPC   C3A36811  10.749  24.061  14.212
 3129DOPC   C4A36812  10.649  24.241  13.842
 3129DOPC   C1B36813  11.069  23.241  14.292
 3129DOPC   D2B36814  10.659  23.361  13.982
 3129DOPC   C3B36815  10.769  23.111  13.562
 3129DOPC   C4B36816  10.629  22.731  13.342
 3130DOPC   NC336817  21.299   8.154  15.742
 3130DOPC   PO436818  20.849   8.074  15.512
 3130DOPC   GL136819  20.939   8.394  15.132
 3130DOPC   GL236820  20.689   8.634  15.112
 3130DOPC   C1A36821  21.329   8.544  14.802
 3130DOPC   D2A36822  21.539   8.564  14.442
 3130DOPC   C3A36823  21.229   8.624  14.082
 3130DOPC   C4A36824  21.019   8.674  13.722
 3130DOPC   C1B36825  20.519   8.654  14.752
 3130DOPC   D2B36826  20.119   8.504  14.602
 3130DOPC   C3B36827  19.849   8.744  14.492
 3130DOPC   C4B36828  19.529   8.844  14.312
 3131DOPC   NC336829  19.839  15.854  12.042
 3131DOPC   PO436830  19.479  15.444  12.142
 3131DOPC   GL136831  19.509  15.734  12.402
 3131DOPC   GL236832  19.809  15.664  12.482
 3131DOPC   C1A36833  19.399  15.924  12.772
 3131DOPC   D2A36834  19.249  15.894  13.122
 3131DOPC   C3A36835  19.339  15.554  13.532
 3131DOPC   C4A36836  19.149  15.204  13.662
 3131DOPC   C1B36837  19.589  15.344  12.812
 3131DOPC   D2B36838  19.299  15.224  13.142
 3131DOPC   C3B36839  18.969  15.474  13.122
 3131DOPC   C4B36840  18.559  15.434  13.342
 3132DOPC   NC336841  11.389   1.584  10.872
 3132DOPC   PO436842  11.219   1.154  11.092
 3132DOPC   GL136843  11.099   0.824  11.372
 3132DOPC   GL236844  11.319   0.684  11.542
 3132DOPC   C1A36845  10.789   0.734  11.722
 3132DOPC   D2A36846  10.409   0.484  11.682
 3132DOPC   C3A36847  10.129   0.614  11.912
 3132DOPC   C4A36848   9.829   0.464  12.072
 3132DOPC   C1B36849  11.229   0.964  11.822
 3132DOPC   D2B36850  11.289   1.224  12.192
 3132DOPC   C3B36851  11.129   1.334  12.482
 3132DOPC   C4B36852  11.049   1.374  13.012
 3133DOPC   NC336853  21.109  15.784  16.062
 3133DOPC   PO436854  21.049  15.614  15.622
 3133DOPC   GL136855  20.749  15.594  15.222
 3133DOPC   GL236856  20.339  15.674  15.222
 3133DOPC   C1A36857  20.829  15.714  14.852
 3133DOPC   D2A36858  21.129  15.694  14.462
 3133DOPC   C3A36859  21.169  15.574  14.072
 3133DOPC   C4A36860  21.219  15.524  13.602
 3133DOPC   C1B36861  20.299  15.684  14.802
 3133DOPC   D2B36862  20.499  15.404  14.572
 3133DOPC   C3B36863  20.289  15.154  14.282
 3133DOPC   C4B36864  19.919  14.894  14.322
 3134DOPC   NC336865   0.779  12.994   7.622
 3134DOPC   PO436866   0.429  12.784   7.642
 3134DOPC   GL136867   0.289  12.774   7.282
 3134DOPC   GL236868   0.639  12.844   7.162
 3134DOPC   C1A36869   0.249  12.964   6.892
 3134DOPC   D2A36870   0.249  13.064   6.452
 3134DOPC   C3A36871   0.439  13.174   6.062
 3134DOPC   C4A36872   0.609  12.944   5.712
 3134DOPC   C1B36873   0.649  13.184   6.812
 3134DOPC   D2B36874   0.729  13.274   6.462
 3134DOPC   C3B36875   0.419  13.584   6.382
 3134DOPC   C4B36876   0.099  13.854   6.462
 3135DOPC   NC336877  12.179  21.371  11.422
 3135DOPC   PO436878  11.969  21.811  11.242
 3135DOPC   GL136879  11.789  21.751  11.712
 3135DOPC   GL236880  11.859  21.481  11.842
 3135DOPC   C1A36881  11.989  21.931  12.062
 3135DOPC   D2A36882  12.319  22.081  12.312
 3135DOPC   C3A36883  12.489  21.821  12.652
 3135DOPC   C4A36884  12.649  21.781  13.032
 3135DOPC   C1B36885  11.779  21.561  12.262
 3135DOPC   D2B36886  11.739  22.001  12.482
 3135DOPC   C3B36887  12.089  22.141  12.712
 3135DOPC   C4B36888  12.379  22.181  12.962
 3136DOPC   NC336889  10.329  11.534  14.172
 3136DOPC   PO436890  10.049  11.114  14.142
 3136DOPC   GL136891  10.069  11.314  13.712
 3136DOPC   GL236892  10.319  11.564  13.652
 3136DOPC   C1A36893  10.159  11.064  13.422
 3136DOPC   D2A36894  10.209  10.834  13.062
 3136DOPC   C3A36895  10.369  10.484  12.942
 3136DOPC   C4A36896  10.499  10.164  12.702
 3136DOPC   C1B36897   9.859  11.634  13.422
 3136DOPC   D2B36898   9.759  11.754  13.032
 3136DOPC   C3B36899   9.869  12.164  12.782
 3136DOPC   C4B36900   9.829  12.514  12.772
 3137DOPC   NC336901  10.949   6.784  10.652
 3137DOPC   PO436902  11.349   6.844  10.862
 3137DOPC   GL136903  11.329   7.154  11.262
 3137DOPC   GL236904  11.589   7.404  11.262
 3137DOPC   C1A36905  11.129   6.994  11.662
 3137DOPC   D2A36906  11.269   6.904  12.002
 3137DOPC   C3A36907  11.019   6.984  12.402
 3137DOPC   C4A36908  10.659   7.164  12.722
 3137DOPC   C1B36909  11.749   7.784  11.612
 3137DOPC   D2B36910  11.459   7.844  12.042
 3137DOPC   C3B36911  11.089   7.784  11.982
 3137DOPC   C4B36912  10.759   7.784  11.702
 3138DOPC   NC336913   1.249   3.174  11.322
 3138DOPC   PO436914   0.919   3.364  11.442
 3138DOPC   GL136915   0.719   3.304  11.882
 3138DOPC   GL236916   0.789   2.994  12.032
 3138DOPC   C1A36917   0.429   3.274  12.322
 3138DOPC   D2A36918   0.359   3.224  12.772
 3138DOPC   C3A36919   0.769   3.454  13.082
 3138DOPC   C4A36920   1.199   3.434  13.212
 3138DOPC   C1B36921   0.689   2.934  12.552
 3138DOPC   D2B36922   0.899   3.024  12.902
 3138DOPC   C3B36923   1.319   3.284  12.782
 3138DOPC   C4B36924   1.519   3.464  12.462
 3139DOPC   NC336925   8.739   8.234  10.902
 3139DOPC   PO436926   9.139   7.954  10.972
 3139DOPC   GL136927   8.859   7.834  11.262
 3139DOPC   GL236928   8.789   7.994  11.532
 3139DOPC   C1A36929   8.609   7.534  11.582
 3139DOPC   D2A36930   8.829   7.534  11.982
 3139DOPC   C3A36931   8.819   7.804  12.322
 3139DOPC   C4A36932   8.719   8.104  12.662
 3139DOPC   C1B36933   9.069   7.984  11.912
 3139DOPC   D2B36934   9.409   7.714  12.002
 3139DOPC   C3B36935   9.209   7.514  12.352
 3139DOPC   C4B36936   8.899   7.294  12.582
 3140DOPC   NC336937   8.419  20.584  15.792
 3140DOPC   PO436938   8.529  20.434  15.352
 3140DOPC   GL136939   8.549  20.444  14.872
 3140DOPC   GL236940   8.669  20.114  14.642
 3140DOPC   C1A36941   8.299  20.524  14.572
 3140DOPC   D2A36942   7.909  20.534  14.282
 3140DOPC   C3A36943   7.639  20.804  14.042
 3140DOPC   C4A36944   7.629  20.734  13.602
 3140DOPC   C1B36945   8.429  20.044  14.332
 3140DOPC   D2B36946   8.349  20.384  14.092
 3140DOPC   C3B36947   8.499  20.274  13.662
 3140DOPC   C4B36948   8.699  20.094  13.222
 3141DOPC   NC336949  18.079   7.564  10.722
 3141DOPC   PO436950  17.869   7.234  10.922
 3141DOPC   GL136951  17.869   7.234  11.392
 3141DOPC   GL236952  17.619   7.344  11.392
 3141DOPC   C1A36953  17.939   7.464  11.762
 3141DOPC   D2A36954  17.879   7.464  12.202
 3141DOPC   C3A36955  18.199   7.124  12.392
 3141DOPC   C4A36956  18.209   6.754  12.622
 3141DOPC   C1B36957  17.319   6.964  11.562
 3141DOPC   D2B36958  17.069   6.524  11.552
 3141DOPC   C3B36959  17.039   6.154  11.872
 3141DOPC   C4B36960  17.169   5.784  12.082
 3142DOPC   NC336961  16.369   0.694  12.122
 3142DOPC   PO436962  16.479   0.274  12.052
 3142DOPC   GL136963  16.689   0.404  12.402
 3142DOPC   GL236964  16.699   0.674  12.512
 3142DOPC   C1A36965  16.859   0.254  12.712
 3142DOPC   D2A36966  17.289   0.264  12.892
 3142DOPC   C3A36967  17.339   0.414  13.272
 3142DOPC   C4A36968  17.439   0.734  13.492
 3142DOPC   C1B36969  16.509   0.724  12.952
 3142DOPC   D2B36970  16.149   1.004  13.132
 3142DOPC   C3B36971  15.699   1.244  12.952
 3142DOPC   C4B36972  15.319   1.294  13.302
 3143DOPC   NC336973  21.519  20.414  12.322
 3143DOPC   PO436974  21.889  20.104  12.432
 3143DOPC   GL136975  22.139  19.944  12.752
 3143DOPC   GL236976  22.239  20.094  12.912
 3143DOPC   C1A36977  22.219  19.724  13.202
 3143DOPC   D2A36978  22.379  19.574  13.672
 3143DOPC   C3A36979  22.809  19.494  13.642
 3143DOPC   C4A36980  23.079  19.164  13.522
 3143DOPC   C1B36981  22.089  20.284  13.232
 3143DOPC   D2B36982  21.989  20.304  13.712
 3143DOPC   C3B36983  22.099  20.644  13.902
 3143DOPC   C4B36984  22.349  20.934  13.872
 3144DOPC   NC336985  25.269  17.814  12.402
 3144DOPC   PO436986  25.449  18.174  12.302
 3144DOPC   GL136987  25.479  18.274  12.702
 3144DOPC   GL236988  25.696  18.594  12.782
 3144DOPC   C1A36989  25.639  18.204  13.112
 3144DOPC   D2A36990  25.836  18.414  13.452
 3144DOPC   C3A36991  25.796  18.534  13.872
 3144DOPC   C4A36992  25.766  18.364  14.242
 3144DOPC   C1B36993  25.736  18.904  13.162
 3144DOPC   D2B36994  25.736  19.014  13.562
 3144DOPC   C3B36995  25.349  19.084  13.452
 3144DOPC   C4B36996  24.969  18.994  13.192
 3145DOPC   NC336997   8.629   5.324  10.682
 3145DOPC   PO436998   8.989   5.124  10.842
 3145DOPC   GL136999   9.019   5.124  11.282
 3145DOPC   GL237000   9.009   4.734  11.392
 3145DOPC   C1A37001   8.639   5.044  11.622
 3145DOPC   D2A37002   8.819   4.864  11.972
 3145DOPC   C3A37003   8.879   5.144  12.382
 3145DOPC   C4A37004   9.179   5.534  12.352
 3145DOPC   C1B37005   8.959   4.414  11.682
 3145DOPC   D2B37006   8.879   4.424  12.202
 3145DOPC   C3B37007   8.649   4.224  12.562
 3145DOPC   C4B37008   8.719   3.904  12.762
 3146DOPC   NC337009   6.099   8.054  11.342
 3146DOPC   PO437010   5.909   7.644  11.222
 3146DOPC   GL137011   5.959   7.704  11.712
 3146DOPC   GL237012   5.709   7.804  11.822
 3146DOPC   C1A37013   6.159   7.934  12.032
 3146DOPC   D2A37014   6.459   8.244  12.262
 3146DOPC   C3A37015   6.869   8.184  12.432
 3146DOPC   C4A37016   7.189   8.214  12.642
 3146DOPC   C1B37017   5.809   7.554  12.212
 3146DOPC   D2B37018   6.089   7.634  12.542
 3146DOPC   C3B37019   6.119   7.274  12.882
 3146DOPC   C4B37020   6.399   7.144  13.192
 3147DOPC   NC337021   3.709  14.734  11.042
 3147DOPC   PO437022   3.939  14.914  11.442
 3147DOPC   GL137023   4.189  14.664  11.772
 3147DOPC   GL237024   4.399  14.914  11.962
 3147DOPC   C1A37025   4.299  14.494  12.182
 3147DOPC   D2A37026   4.109  14.314  12.522
 3147DOPC   C3A37027   3.969  13.824  12.552
 3147DOPC   C4A37028   3.879  13.524  12.832
 3147DOPC   C1B37029   4.539  15.054  12.372
 3147DOPC   D2B37030   4.409  15.024  12.812
 3147DOPC   C3B37031   4.429  15.094  13.202
 3147DOPC   C4B37032   4.089  15.424  13.422
 3148DOPC   NC337033  21.069  25.501  12.272
 3148DOPC   PO437034  20.889  25.171  12.462
 3148DOPC   GL137035  20.699  25.231  12.882
 3148DOPC   GL237036  20.489  25.491  12.942
 3148DOPC   C1A37037  20.799  25.291  13.312
 3148DOPC   D2A37038  21.009  25.131  13.612
 3148DOPC   C3A37039  21.419  25.221  13.752
 3148DOPC   C4A37040  21.779  25.131  13.952
 3148DOPC   C1B37041  20.229  25.361  13.312
 3148DOPC   D2B37042  20.009  25.451  13.672
 3148DOPC   C3B37043  19.919  25.011  13.892
 3148DOPC   C4B37044  19.889  24.721  14.152
 3149DOPC   NC337045  11.799  16.594  10.712
 3149DOPC   PO437046  11.819  16.974  10.842
 3149DOPC   GL137047  11.459  17.074  11.212
 3149DOPC   GL237048  11.239  17.334  11.412
 3149DOPC   C1A37049  11.489  16.974  11.752
 3149DOPC   D2A37050  11.459  16.794  12.162
 3149DOPC   C3A37051  11.349  16.794  12.612
 3149DOPC   C4A37052  11.299  16.694  13.092
 3149DOPC   C1B37053  11.089  17.344  11.802
 3149DOPC   D2B37054  11.159  17.724  12.032
 3149DOPC   C3B37055  11.479  17.774  12.372
 3149DOPC   C4B37056  11.729  17.864  12.652
 3150DOPC   NC337057   4.849  13.274  10.972
 3150DOPC   PO437058   4.499  13.404  11.232
 3150DOPC   GL137059   4.459  13.184  11.622
 3150DOPC   GL237060   4.569  13.514  11.832
 3150DOPC   C1A37061   4.479  13.044  12.042
 3150DOPC   D2A37062   4.239  12.994  12.362
 3150DOPC   C3A37063   4.279  12.674  12.722
 3150DOPC   C4A37064   4.449  12.664  13.152
 3150DOPC   C1B37065   4.919  13.324  12.072
 3150DOPC   D2B37066   5.169  13.014  12.352
 3150DOPC   C3B37067   5.139  13.084  12.822
 3150DOPC   C4B37068   4.729  13.064  13.082
 3151DOPC   NC337069  24.099   3.484  11.792
 3151DOPC   PO437070  24.489   3.354  11.702
 3151DOPC   GL137071  24.639   3.494  12.042
 3151DOPC   GL237072  24.829   3.834  12.182
 3151DOPC   C1A37073  24.499   3.634  12.492
 3151DOPC   D2A37074  24.159   3.704  12.852
 3151DOPC   C3A37075  24.309   3.924  13.232
 3151DOPC   C4A37076  24.319   4.004  13.752
 3151DOPC   C1B37077  24.819   4.354  12.062
 3151DOPC   D2B37078  24.469   4.694  12.102
 3151DOPC   C3B37079  24.619   4.664  12.522
 3151DOPC   C4B37080  24.989   4.804  12.502
 3152DOPC   NC337081  21.429  18.784  15.872
 3152DOPC   PO437082  21.599  18.384  15.802
 3152DOPC   GL137083  21.709  18.334  15.442
 3152DOPC   GL237084  21.459  18.124  15.272
 3152DOPC   C1A37085  21.789  18.544  15.082
 3152DOPC   D2A37086  21.399  18.834  15.042
 3152DOPC   C3A37087  21.419  19.244  15.222
 3152DOPC   C4A37088  21.829  19.584  15.142
 3152DOPC   C1B37089  21.509  18.074  14.912
 3152DOPC   D2B37090  21.879  18.124  14.642
 3152DOPC   C3B37091  21.819  17.924  14.202
 3152DOPC   C4B37092  22.059  17.714  13.872
 3153DOPC   NC337093   9.809   3.134  15.002
 3153DOPC   PO437094  10.129   2.934  14.692
 3153DOPC   GL137095   9.869   2.964  14.342
 3153DOPC   GL237096   9.559   2.934  14.322
 3153DOPC   C1A37097  10.019   3.064  13.882
 3153DOPC   D2A37098  10.139   3.144  13.352
 3153DOPC   C3A37099   9.929   3.144  13.032
 3153DOPC   C4A37100   9.769   3.384  12.682
 3153DOPC   C1B37101   9.639   2.724  13.992
 3153DOPC   D2B37102   9.769   2.844  13.512
 3153DOPC   C3B37103   9.639   2.684  13.192
 3153DOPC   C4B37104   9.799   2.404  12.812
 3154DOPC   NC337105  18.929   1.034  15.972
 3154DOPC   PO437106  19.349   1.294  15.912
 3154DOPC   GL137107  19.409   0.914  15.572
 3154DOPC   GL237108  19.679   0.874  15.422
 3154DOPC   C1A37109  19.349   1.144  15.152
 3154DOPC   D2A37110  19.279   1.424  14.852
 3154DOPC   C3A37111  19.399   1.814  14.642
 3154DOPC   C4A37112  19.549   2.204  14.552
 3154DOPC   C1B37113  19.659   0.874  14.952
 3154DOPC   D2B37114  19.849   0.624  14.512
 3154DOPC   C3B37115  19.529   0.754  14.062
 3154DOPC   C4B37116  19.169   0.744  13.752
 3155DOPC   NC337117  17.839  23.431  12.202
 3155DOPC   PO437118  17.929  23.051  11.922
 3155DOPC   GL137119  18.219  22.951  12.242
 3155DOPC   GL237120  18.379  23.241  12.412
 3155DOPC   C1A37121  18.179  22.641  12.672
 3155DOPC   D2A37122  18.049  22.731  13.152
 3155DOPC   C3A37123  18.159  22.821  13.622
 3155DOPC   C4A37124  18.229  22.781  13.982
 3155DOPC   C1B37125  18.549  23.361  12.802
 3155DOPC   D2B37126  18.819  23.411  13.172
 3155DOPC   C3B37127  18.599  23.571  13.592
 3155DOPC   C4B37128  18.579  23.731  14.032
 3156DOPC   NC337129  19.279  24.351  12.082
 3156DOPC   PO437130  19.589  23.971  12.082
 3156DOPC   GL137131  19.319  24.131  12.542
 3156DOPC   GL237132  18.999  24.001  12.732
 3156DOPC   C1A37133  19.429  23.841  12.922
 3156DOPC   D2A37134  19.859  24.001  13.042
 3156DOPC   C3A37135  20.029  23.951  13.472
 3156DOPC   C4A37136  19.889  23.911  13.902
 3156DOPC   C1B37137  18.979  23.861  13.152
 3156DOPC   D2B37138  18.569  23.881  13.072
 3156DOPC   C3B37139  18.329  23.601  13.232
 3156DOPC   C4B37140  18.109  23.241  13.302
 3157DOPC   NC337141   8.709  16.584  14.842
 3157DOPC   PO437142   9.069  16.794  14.882
 3157DOPC   GL137143   8.999  16.954  14.442
 3157DOPC   GL237144   8.729  17.034  14.582
 3157DOPC   C1A37145   8.899  17.084  14.092
 3157DOPC   D2A37146   8.719  17.304  13.782
 3157DOPC   C3A37147   8.979  17.774  13.832
 3157DOPC   C4A37148   8.919  18.254  13.802
 3157DOPC   C1B37149   8.409  17.244  14.372
 3157DOPC   D2B37150   8.129  17.534  14.002
 3157DOPC   C3B37151   8.429  17.654  13.692
 3157DOPC   C4B37152   8.729  17.494  13.342
 3158DOPC   NC337153   3.109   2.524  11.182
 3158DOPC   PO437154   3.279   2.894  11.262
 3158DOPC   GL137155   3.389   3.144  11.622
 3158DOPC   GL237156   3.159   3.204  11.792
 3158DOPC   C1A37157   3.539   3.174  12.152
 3158DOPC   D2A37158   3.479   3.184  12.592
 3158DOPC   C3A37159   3.479   2.834  12.732
 3158DOPC   C4A37160   3.409   2.364  12.912
 3158DOPC   C1B37161   2.999   3.314  12.222
 3158DOPC   D2B37162   2.969   3.444  12.552
 3158DOPC   C3B37163   3.169   3.404  12.902
 3158DOPC   C4B37164   3.399   3.084  13.242
 3159DOPC   NC337165  17.949  19.134  11.932
 3159DOPC   PO437166  17.609  18.814  11.902
 3159DOPC   GL137167  17.549  18.634  12.352
 3159DOPC   GL237168  17.519  18.324  12.412
 3159DOPC   C1A37169  17.479  18.774  12.762
 3159DOPC   D2A37170  17.259  18.564  13.132
 3159DOPC   C3A37171  17.569  18.694  13.532
 3159DOPC   C4A37172  17.839  18.944  13.572
 3159DOPC   C1B37173  17.479  18.214  12.862
 3159DOPC   D2B37174  17.489  18.044  13.322
 3159DOPC   C3B37175  17.539  17.614  13.432
 3159DOPC   C4B37176  17.149  17.644  13.592
 3160DOPC   NC337177  20.989   4.614  11.492
 3160DOPC   PO437178  21.199   4.284  11.762
 3160DOPC   GL137179  21.099   4.194  12.182
 3160DOPC   GL237180  21.259   3.954  12.462
 3160DOPC   C1A37181  20.709   4.214  12.492
 3160DOPC   D2A37182  20.419   4.414  12.812
 3160DOPC   C3A37183  20.379   4.894  12.882
 3160DOPC   C4A37184  20.149   5.204  12.742
 3160DOPC   C1B37185  21.109   4.104  12.842
 3160DOPC   D2B37186  21.119   4.084  13.212
 3160DOPC   C3B37187  21.459   4.244  13.462
 3160DOPC   C4B37188  21.559   4.364  13.862
 3161DOPC   NC337189  23.279   7.334  11.992
 3161DOPC   PO437190  23.249   7.794  11.682
 3161DOPC   GL137191  23.139   7.784  12.192
 3161DOPC   GL237192  23.379   7.824  12.442
 3161DOPC   C1A37193  22.959   7.624  12.552
 3161DOPC   D2A37194  22.769   7.554  12.912
 3161DOPC   C3A37195  23.009   7.344  13.282
 3161DOPC   C4A37196  23.279   7.544  13.532
 3161DOPC   C1B37197  23.729   7.584  12.512
 3161DOPC   D2B37198  23.849   7.354  12.872
 3161DOPC   C3B37199  23.589   7.214  13.202
 3161DOPC   C4B37200  23.399   6.934  13.472
 3162DOPC   NC337201   4.169  17.614   7.932
 3162DOPC   PO437202   3.989  18.014   8.132
 3162DOPC   GL137203   3.809  18.074   7.782
 3162DOPC   GL237204   3.889  18.364   7.732
 3162DOPC   C1A37205   3.649  18.244   7.322
 3162DOPC   D2A37206   3.459  18.444   6.972
 3162DOPC   C3A37207   3.179  18.774   6.922
 3162DOPC   C4A37208   2.759  18.894   6.932
 3162DOPC   C1B37209   3.789  18.694   7.422
 3162DOPC   D2B37210   3.619  18.904   7.082
 3162DOPC   C3B37211   3.649  18.854   6.652
 3162DOPC   C4B37212   3.469  18.844   6.172
 3163DOPC   NC337213  19.119  20.324  16.132
 3163DOPC   PO437214  19.319  20.594  15.792
 3163DOPC   GL137215  19.429  20.374  15.412
 3163DOPC   GL237216  19.239  20.194  15.272
 3163DOPC   C1A37217  19.709  20.524  15.122
 3163DOPC   D2A37218  19.789  20.764  14.702
 3163DOPC   C3A37219  19.709  21.274  14.702
 3163DOPC   C4A37220  19.519  21.661  14.392
 3163DOPC   C1B37221  19.229  20.424  14.962
 3163DOPC   D2B37222  19.289  20.444  14.432
 3163DOPC   C3B37223  19.619  20.424  14.172
 3163DOPC   C4B37224  19.949  20.284  13.812
 3164DOPC   NC337225   6.349   9.264  11.152
 3164DOPC   PO437226   5.919   9.344  11.152
 3164DOPC   GL137227   6.069   9.184  11.552
 3164DOPC   GL237228   5.839   9.444  11.772
 3164DOPC   C1A37229   6.299   9.234  11.972
 3164DOPC   D2A37230   6.559   9.524  12.292
 3164DOPC   C3A37231   6.679   9.724  12.612
 3164DOPC   C4A37232   6.849   9.984  12.882
 3164DOPC   C1B37233   6.089   9.704  12.092
 3164DOPC   D2B37234   6.149   9.704  12.552
 3164DOPC   C3B37235   6.309   9.894  12.852
 3164DOPC   C4B37236   6.489  10.294  12.692
 3165DOPC   NC337237   7.819   4.714  10.832
 3165DOPC   PO437238   7.659   5.084  11.052
 3165DOPC   GL137239   7.859   4.954  11.402
 3165DOPC   GL237240   8.129   4.834  11.322
 3165DOPC   C1A37241   7.729   4.844  11.832
 3165DOPC   D2A37242   7.989   4.574  12.162
 3165DOPC   C3A37243   7.799   4.224  12.312
 3165DOPC   C4A37244   7.839   3.784  12.392
 3165DOPC   C1B37245   8.049   4.464  11.552
 3165DOPC   D2B37246   8.149   4.104  11.822
 3165DOPC   C3B37247   8.289   4.124  12.262
 3165DOPC   C4B37248   8.259   3.894  12.642
 3166DOPC   NC337249  20.319  19.994  16.232
 3166DOPC   PO437250  20.609  19.944  15.982
 3166DOPC   GL137251  20.529  20.094  15.552
 3166DOPC   GL237252  20.849  20.254  15.372
 3166DOPC   C1A37253  20.269  20.134  15.082
 3166DOPC   D2A37254  20.179  19.874  14.772
 3166DOPC   C3A37255  20.189  19.994  14.362
 3166DOPC   C4A37256  19.829  19.934  14.182
 3166DOPC   C1B37257  20.709  20.414  14.992
 3166DOPC   D2B37258  20.319  20.364  14.652
 3166DOPC   C3B37259  20.479  20.374  14.252
 3166DOPC   C4B37260  20.539  20.554  13.852
 3167DOPC   NC337261   2.329  10.614  11.602
 3167DOPC   PO437262   2.729  10.314  11.512
 3167DOPC   GL137263   2.939  10.234  11.972
 3167DOPC   GL237264   2.749  10.174  12.342
 3167DOPC   C1A37265   3.199  10.454  12.292
 3167DOPC   D2A37266   3.479  10.594  12.662
 3167DOPC   C3A37267   3.609  11.014  12.692
 3167DOPC   C4A37268   3.679  11.454  12.592
 3167DOPC   C1B37269   2.599  10.154  12.792
 3167DOPC   D2B37270   2.829  10.094  13.182
 3167DOPC   C3B37271   2.669   9.724  13.612
 3167DOPC   C4B37272   2.949   9.524  13.912
 3168DOPC   NC337273   8.539   6.994  11.192
 3168DOPC   PO437274   8.199   7.084  10.902
 3168DOPC   GL137275   8.039   6.924  11.222
 3168DOPC   GL237276   7.729   7.004  11.382
 3168DOPC   C1A37277   8.169   7.134  11.612
 3168DOPC   D2A37278   8.169   6.984  12.042
 3168DOPC   C3A37279   8.469   6.994  12.282
 3168DOPC   C4A37280   8.409   7.284  12.592
 3168DOPC   C1B37281   7.739   6.714  11.802
 3168DOPC   D2B37282   7.709   6.814  12.212
 3168DOPC   C3B37283   7.809   6.524  12.532
 3168DOPC   C4B37284   7.969   6.344  12.832
 3169DOPC   NC337285   3.029  23.131  11.752
 3169DOPC   PO437286   2.719  23.451  11.582
 3169DOPC   GL137287   2.809  23.591  11.952
 3169DOPC   GL237288   2.519  23.481  12.212
 3169DOPC   C1A37289   3.069  23.551  12.332
 3169DOPC   D2A37290   3.289  23.321  12.712
 3169DOPC   C3A37291   3.169  23.081  13.022
 3169DOPC   C4A37292   3.109  22.741  13.222
 3169DOPC   C1B37293   2.639  23.781  12.532
 3169DOPC   D2B37294   2.629  23.931  12.962
 3169DOPC   C3B37295   2.569  24.411  12.982
 3169DOPC   C4B37296   2.379  24.641  13.172
 3170DOPC   NC337297  12.889  17.794  10.732
 3170DOPC   PO437298  12.969  18.204  10.672
 3170DOPC   GL137299  12.969  18.184  11.112
 3170DOPC   GL237300  12.609  18.134  11.242
 3170DOPC   C1A37301  13.069  18.204  11.542
 3170DOPC   D2A37302  13.399  18.414  11.752
 3170DOPC   C3A37303  13.549  18.094  11.962
 3170DOPC   C4A37304  13.429  17.934  12.252
 3170DOPC   C1B37305  12.609  18.454  11.552
 3170DOPC   D2B37306  12.879  18.504  11.892
 3170DOPC   C3B37307  13.049  18.254  12.062
 3170DOPC   C4B37308  12.819  17.914  12.242
 3171DOPC   NC337309  14.299   2.714  15.482
 3171DOPC   PO437310  14.729   2.674  15.272
 3171DOPC   GL137311  14.989   2.484  14.832
 3171DOPC   GL237312  14.859   2.244  14.682
 3171DOPC   C1A37313  14.979   2.694  14.402
 3171DOPC   D2A37314  15.109   2.794  13.972
 3171DOPC   C3A37315  14.849   2.714  13.762
 3171DOPC   C4A37316  14.519   2.614  13.472
 3171DOPC   C1B37317  15.189   2.264  14.402
 3171DOPC   D2B37318  15.099   2.314  14.002
 3171DOPC   C3B37319  15.179   2.394  13.602
 3171DOPC   C4B37320  15.429   2.724  13.472
 3172DOPC   NC337321   2.229  13.874  11.292
 3172DOPC   PO437322   2.249  13.404  11.372
 3172DOPC   GL137323   2.319  13.254  11.822
 3172DOPC   GL237324   2.099  13.004  11.952
 3172DOPC   C1A37325   2.279  13.344  12.292
 3172DOPC   D2A37326   2.449  13.654  12.552
 3172DOPC   C3A37327   2.489  13.594  13.082
 3172DOPC   C4A37328   2.479  13.384  13.482
 3172DOPC   C1B37329   2.489  12.904  12.242
 3172DOPC   D2B37330   2.759  13.204  12.402
 3172DOPC   C3B37331   2.769  13.184  12.892
 3172DOPC   C4B37332   3.049  12.914  13.062
 3173DOPC   NC337333  23.969  21.901  15.762
 3173DOPC   PO437334  23.519  22.021  15.912
 3173DOPC   GL137335  23.719  22.321  15.642
 3173DOPC   GL237336  23.459  22.521  15.562
 3173DOPC   C1A37337  23.939  22.171  15.202
 3173DOPC   D2A37338  24.129  22.061  14.812
 3173DOPC   C3A37339  24.389  22.351  14.632
 3173DOPC   C4A37340  24.589  22.671  14.522
 3173DOPC   C1B37341  23.069  22.411  15.322
 3173DOPC   D2B37342  22.839  22.451  14.942
 3173DOPC   C3B37343  22.379  22.581  14.802
 3173DOPC   C4B37344  22.149  22.731  14.492
 3174DOPC   NC337345  13.719  23.981  15.402
 3174DOPC   PO437346  14.219  24.051  15.462
 3174DOPC   GL137347  14.289  24.021  15.032
 3174DOPC   GL237348  14.429  24.321  14.842
 3174DOPC   C1A37349  14.109  24.021  14.662
 3174DOPC   D2A37350  14.079  23.961  14.142
 3174DOPC   C3A37351  14.269  23.531  14.132
 3174DOPC   C4A37352  14.359  23.181  14.222
 3174DOPC   C1B37353  14.779  24.371  14.562
 3174DOPC   D2B37354  14.939  24.191  14.172
 3174DOPC   C3B37355  14.939  24.351  13.772
 3174DOPC   C4B37356  15.049  24.591  13.372
 3175DOPC   NC337357  19.719  21.841  16.082
 3175DOPC   PO437358  19.549  21.581  15.612
 3175DOPC   GL137359  19.719  21.641  15.212
 3175DOPC   GL237360  20.009  21.711  15.032
 3175DOPC   C1A37361  19.639  21.891  14.832
 3175DOPC   D2A37362  19.179  21.841  14.762
 3175DOPC   C3A37363  18.989  21.911  14.402
 3175DOPC   C4A37364  18.719  22.141  14.172
 3175DOPC   C1B37365  20.399  21.861  14.802
 3175DOPC   D2B37366  20.769  21.951  14.482
 3175DOPC   C3B37367  20.609  22.231  14.182
 3175DOPC   C4B37368  20.649  22.471  13.912
 3176DOPC   NC337369  17.999   2.624  14.792
 3176DOPC   PO437370  18.349   2.394  15.082
 3176DOPC   GL137371  18.489   2.364  14.702
 3176DOPC   GL237372  18.229   2.134  14.622
 3176DOPC   C1A37373  18.689   2.104  14.342
 3176DOPC   D2A37374  18.649   1.844  14.062
 3176DOPC   C3A37375  18.539   2.054  13.652
 3176DOPC   C4A37376  18.129   2.364  13.662
 3176DOPC   C1B37377  18.219   2.164  14.232
 3176DOPC   D2B37378  17.909   2.174  14.012
 3176DOPC   C3B37379  17.439   2.124  14.162
 3176DOPC   C4B37380  17.379   1.734  14.312
 3177DOPC   NC337381  21.189  24.771  12.422
 3177DOPC   PO437382  20.739  24.781  12.232
 3177DOPC   GL137383  20.719  24.771  12.692
 3177DOPC   GL237384  20.979  24.801  12.932
 3177DOPC   C1A37385  20.489  24.781  13.132
 3177DOPC   D2A37386  20.289  24.881  13.582
 3177DOPC   C3A37387  20.489  25.281  13.752
 3177DOPC   C4A37388  20.749  25.591  13.702
 3177DOPC   C1B37389  20.929  24.691  13.462
 3177DOPC   D2B37390  20.709  24.711  13.802
 3177DOPC   C3B37391  20.889  24.951  14.122
 3177DOPC   C4B37392  20.859  25.091  14.532
 3178DOPC   NC337393  23.759   7.724  11.512
 3178DOPC   PO437394  24.019   7.364  11.712
 3178DOPC   GL137395  24.249   7.384  12.122
 3178DOPC   GL237396  24.629   7.154  12.142
 3178DOPC   C1A37397  24.249   7.364  12.512
 3178DOPC   D2A37398  24.309   7.174  12.912
 3178DOPC   C3A37399  24.109   7.284  13.332
 3178DOPC   C4A37400  23.729   7.374  13.622
 3178DOPC   C1B37401  24.639   7.004  12.582
 3178DOPC   D2B37402  24.809   6.824  12.862
 3178DOPC   C3B37403  24.799   6.304  12.922
 3178DOPC   C4B37404  24.589   6.014  13.092
 3179DOPC   NC337405  15.649   7.134  11.122
 3179DOPC   PO437406  15.499   6.774  11.012
 3179DOPC   GL137407  15.189   6.784  11.372
 3179DOPC   GL237408  15.019   6.984  11.462
 3179DOPC   C1A37409  15.109   6.574  11.722
 3179DOPC   D2A37410  14.759   6.404  11.942
 3179DOPC   C3A37411  14.769   6.274  12.382
 3179DOPC   C4A37412  15.019   6.104  12.742
 3179DOPC   C1B37413  14.879   6.974  11.872
 3179DOPC   D2B37414  14.719   6.824  12.272
 3179DOPC   C3B37415  14.769   6.954  12.582
 3179DOPC   C4B37416  15.009   7.044  12.942
 3180DOPC   NC337417  23.109  23.601  12.522
 3180DOPC   PO437418  22.709  23.361  12.612
 3180DOPC   GL137419  22.829  23.501  12.972
 3180DOPC   GL237420  23.089  23.381  13.112
 3180DOPC   C1A37421  22.739  23.481  13.462
 3180DOPC   D2A37422  22.689  23.331  13.772
 3180DOPC   C3A37423  22.879  23.581  14.192
 3180DOPC   C4A37424  22.979  23.941  14.342
 3180DOPC   C1B37425  23.189  23.341  13.532
 3180DOPC   D2B37426  23.269  23.291  13.912
 3180DOPC   C3B37427  23.549  22.891  14.082
 3180DOPC   C4B37428  23.359  22.511  14.082
 3181DOPC   NC337429  18.429   0.604  11.852
 3181DOPC   PO437430  18.749   0.954  11.912
 3181DOPC   GL137431  18.489   1.134  12.282
 3181DOPC   GL237432  18.189   1.074  12.092
 3181DOPC   C1A37433  18.479   1.214  12.772
 3181DOPC   D2A37434  18.369   1.134  13.192
 3181DOPC   C3A37435  17.959   1.464  13.402
 3181DOPC   C4A37436  17.949   1.904  13.562
 3181DOPC   C1B37437  18.079   0.874  12.422
 3181DOPC   D2B37438  17.799   0.584  12.512
 3181DOPC   C3B37439  17.859   0.194  12.872
 3181DOPC   C4B37440  17.879   0.224  13.362
 3182DOPC   NC337441  13.189  23.651  15.932
 3182DOPC   PO437442  13.399  23.631  15.552
 3182DOPC   GL137443  13.309  23.771  15.192
 3182DOPC   GL237444  13.019  23.791  15.022
 3182DOPC   C1A37445  13.349  24.091  14.812
 3182DOPC   D2A37446  13.569  24.171  14.422
 3182DOPC   C3A37447  13.339  24.401  14.162
 3182DOPC   C4A37448  13.329  24.441  13.722
 3182DOPC   C1B37449  13.049  23.601  14.632
 3182DOPC   D2B37450  12.929  23.501  14.222
 3182DOPC   C3B37451  13.169  23.601  13.852
 3182DOPC   C4B37452  13.469  23.921  13.772
 3183DOPC   NC337453  21.729  24.381  12.472
 3183DOPC   PO437454  21.919  24.871  12.292
 3183DOPC   GL137455  22.069  25.131  12.592
 3183DOPC   GL237456  22.389  25.151  12.612
 3183DOPC   C1A37457  21.839  25.251  12.982
 3183DOPC   D2A37458  21.729  25.211  13.352
 3183DOPC   C3A37459  21.549  25.621  13.432
 3183DOPC   C4A37460  21.209  25.831  13.732
 3183DOPC   C1B37461  22.339  25.011  13.062
 3183DOPC   D2B37462  22.159  25.051  13.452
 3183DOPC   C3B37463  22.369  25.001  13.832
 3183DOPC   C4B37464  22.649  25.071  14.142
 3184DOPC   NC337465  17.079  12.214  10.362
 3184DOPC   PO437466  16.629  12.474  10.252
 3184DOPC   GL137467  16.439  12.274  10.682
 3184DOPC   GL237468  16.249  12.534  10.892
 3184DOPC   C1A37469  16.639  12.174  11.082
 3184DOPC   D2A37470  16.859  12.244  11.442
 3184DOPC   C3A37471  17.269  12.284  11.552
 3184DOPC   C4A37472  17.649  12.264  11.642
 3184DOPC   C1B37473  16.379  12.494  11.342
 3184DOPC   D2B37474  16.389  12.414  11.772
 3184DOPC   C3B37475  16.269  12.134  12.092
 3184DOPC   C4B37476  16.289  12.304  12.542
 3185DOPC   NC337477   7.959  10.114  15.072
 3185DOPC   PO437478   8.369  10.224  14.952
 3185DOPC   GL137479   8.419  10.274  14.432
 3185DOPC   GL237480   8.559  10.304  14.082
 3185DOPC   C1A37481   8.059  10.214  14.092
 3185DOPC   D2A37482   7.829  10.324  13.802
 3185DOPC   C3A37483   7.439  10.234  13.872
 3185DOPC   C4A37484   6.969  10.134  13.982
 3185DOPC   C1B37485   8.339  10.314  13.702
 3185DOPC   D2B37486   8.539  10.454  13.372
 3185DOPC   C3B37487   8.459  10.364  12.942
 3185DOPC   C4B37488   8.399  10.644  12.582
 3186DOPC   NC337489  24.019  21.711  12.332
 3186DOPC   PO437490  23.949  22.201  12.322
 3186DOPC   GL137491  24.059  22.421  12.782
 3186DOPC   GL237492  23.829  22.751  12.852
 3186DOPC   C1A37493  24.399  22.621  13.132
 3186DOPC   D2A37494  24.629  22.981  13.222
 3186DOPC   C3A37495  25.099  23.051  13.242
 3186DOPC   C4A37496  25.539  23.151  13.042
 3186DOPC   C1B37497  23.729  22.651  13.242
 3186DOPC   D2B37498  23.589  22.501  13.632
 3186DOPC   C3B37499  23.889  22.291  14.002
 3186DOPC   C4B37500  24.159  22.041  14.242
 3187DOPC   NC337501  22.389  22.591  11.892
 3187DOPC   PO437502  22.139  22.591  12.242
 3187DOPC   GL137503  22.129  22.441  12.622
 3187DOPC   GL237504  22.349  22.781  12.762
 3187DOPC   C1A37505  22.079  22.091  12.842
 3187DOPC   D2A37506  21.739  21.911  13.102
 3187DOPC   C3A37507  21.379  22.151  13.372
 3187DOPC   C4A37508  21.119  21.901  13.562
 3187DOPC   C1B37509  22.289  22.571  13.142
 3187DOPC   D2B37510  21.929  22.331  13.272
 3187DOPC   C3B37511  21.599  22.371  12.982
 3187DOPC   C4B37512  21.229  22.121  12.872
 3188DOPC   NC337513  12.809  22.291  11.112
 3188DOPC   PO437514  12.759  21.991  11.482
 3188DOPC   GL137515  12.709  22.221  11.902
 3188DOPC   GL237516  12.799  22.141  12.252
 3188DOPC   C1A37517  12.489  22.521  12.092
 3188DOPC   D2A37518  12.179  22.571  12.372
 3188DOPC   C3A37519  12.009  22.951  12.342
 3188DOPC   C4A37520  11.659  23.101  12.282
 3188DOPC   C1B37521  12.799  22.231  12.682
 3188DOPC   D2B37522  12.999  22.141  13.052
 3188DOPC   C3B37523  13.019  22.361  13.462
 3188DOPC   C4B37524  13.019  22.171  13.862
 3189DOPC   NC337525  11.699   9.774  14.042
 3189DOPC   PO437526  12.019  10.044  13.882
 3189DOPC   GL137527  12.039   9.624  13.692
 3189DOPC   GL237528  11.739   9.584  13.542
 3189DOPC   C1A37529  12.089   9.594  13.252
 3189DOPC   D2A37530  11.899   9.414  12.862
 3189DOPC   C3A37531  11.439   9.264  12.952
 3189DOPC   C4A37532  11.349   9.254  13.352
 3189DOPC   C1B37533  11.579   9.754  13.112
 3189DOPC   D2B37534  11.469   9.804  12.722
 3189DOPC   C3B37535  11.519  10.144  12.502
 3189DOPC   C4B37536  11.719  10.464  12.192
 3190DOPC   NC337537  10.699  10.574  14.452
 3190DOPC   PO437538  10.749  10.684  14.062
 3190DOPC   GL137539  10.489  10.714  13.622
 3190DOPC   GL237540  10.539  10.494  13.442
 3190DOPC   C1A37541  10.669  11.014  13.332
 3190DOPC   D2A37542  11.049  11.234  13.162
 3190DOPC   C3A37543  10.829  11.484  12.872
 3190DOPC   C4A37544  10.619  11.744  12.502
 3190DOPC   C1B37545  10.699  10.184  13.182
 3190DOPC   D2B37546  11.049  10.034  13.182
 3190DOPC   C3B37547  11.059   9.614  13.142
 3190DOPC   C4B37548  10.919   9.184  13.102
 3191DOPC   NC337549  18.539   9.634  15.262
 3191DOPC   PO437550  18.399   9.704  14.942
 3191DOPC   GL137551  18.419   9.684  14.562
 3191DOPC   GL237552  18.359   9.984  14.392
 3191DOPC   C1A37553  18.439   9.594  14.122
 3191DOPC   D2A37554  18.699   9.634  13.632
 3191DOPC   C3A37555  18.499   9.644  13.232
 3191DOPC   C4A37556  18.049   9.644  13.162
 3191DOPC   C1B37557  18.259  10.234  14.092
 3191DOPC   D2B37558  18.329  10.334  13.622
 3191DOPC   C3B37559  18.169  10.164  13.212
 3191DOPC   C4B37560  18.329   9.984  12.852
 3192DOPC   NC337561  16.009   8.924  10.192
 3192DOPC   PO437562  15.909   9.024  10.612
 3192DOPC   GL137563  15.939   8.944  11.062
 3192DOPC   GL237564  15.689   9.104  11.182
 3192DOPC   C1A37565  16.099   9.034  11.512
 3192DOPC   D2A37566  16.499   9.224  11.672
 3192DOPC   C3A37567  16.859   9.014  11.912
 3192DOPC   C4A37568  17.179   9.184  12.172
 3192DOPC   C1B37569  15.549   8.724  11.502
 3192DOPC   D2B37570  15.499   8.664  12.052
 3192DOPC   C3B37571  15.239   9.004  12.402
 3192DOPC   C4B37572  15.099   9.414  12.392
 3193DOPC   NC337573   3.359  17.474  11.802
 3193DOPC   PO437574   3.579  17.884  11.972
 3193DOPC   GL137575   3.679  17.694  12.302
 3193DOPC   GL237576   3.469  17.334  12.272
 3193DOPC   C1A37577   3.639  17.724  12.722
 3193DOPC   D2A37578   3.569  17.624  13.032
 3193DOPC   C3A37579   3.259  17.814  13.372
 3193DOPC   C4A37580   3.279  18.074  13.792
 3193DOPC   C1B37581   3.409  17.184  12.812
 3193DOPC   D2B37582   3.579  17.084  13.232
 3193DOPC   C3B37583   3.899  16.834  13.192
 3193DOPC   C4B37584   4.119  16.504  13.062
 3194DOPC   NC337585  13.469  15.494  10.922
 3194DOPC   PO437586  13.129  15.504  10.642
 3194DOPC   GL137587  12.979  15.384  11.112
 3194DOPC   GL237588  13.099  15.594  11.282
 3194DOPC   C1A37589  12.739  15.214  11.492
 3194DOPC   D2A37590  12.409  15.114  11.752
 3194DOPC   C3A37591  12.289  15.304  12.152
 3194DOPC   C4A37592  12.369  15.484  12.592
 3194DOPC   C1B37593  12.969  15.624  11.732
 3194DOPC   D2B37594  12.809  15.344  12.032
 3194DOPC   C3B37595  12.929  15.114  12.422
 3194DOPC   C4B37596  13.269  15.174  12.772
 3195DOPC   NC337597  19.979  12.694  11.942
 3195DOPC   PO437598  20.029  12.334  11.542
 3195DOPC   GL137599  19.989  12.194  12.092
 3195DOPC   GL237600  20.339  11.944  12.192
 3195DOPC   C1A37601  19.989  12.254  12.492
 3195DOPC   D2A37602  20.019  12.254  12.962
 3195DOPC   C3A37603  20.229  11.954  13.312
 3195DOPC   C4A37604  20.259  11.764  13.742
 3195DOPC   C1B37605  20.319  11.854  12.602
 3195DOPC   D2B37606  20.639  11.704  12.952
 3195DOPC   C3B37607  20.369  11.484  13.282
 3195DOPC   C4B37608  19.929  11.534  13.402
 3196DOPC   NC337609   0.979  13.904  11.852
 3196DOPC   PO437610   1.299  13.584  12.002
 3196DOPC   GL137611   1.049  13.914  12.342
 3196DOPC   GL237612   0.709  14.004  12.252
 3196DOPC   C1A37613   1.049  14.054  12.772
 3196DOPC   D2A37614   1.139  14.124  13.162
 3196DOPC   C3A37615   1.359  14.574  13.202
 3196DOPC   C4A37616   1.809  14.844  13.392
 3196DOPC   C1B37617   0.599  13.814  12.612
 3196DOPC   D2B37618   0.669  13.594  12.952
 3196DOPC   C3B37619   0.259  13.304  13.112
 3196DOPC   C4B37620   0.329  12.794  13.272
 3197DOPC   NC337621   8.229  18.404  15.242
 3197DOPC   PO437622   8.679  18.224  15.232
 3197DOPC   GL137623   8.629  18.624  14.892
 3197DOPC   GL237624   8.279  18.674  14.772
 3197DOPC   C1A37625   8.889  18.914  14.542
 3197DOPC   D2A37626   9.229  18.924  14.182
 3197DOPC   C3A37627   9.099  18.774  13.732
 3197DOPC   C4A37628   8.829  18.734  13.282
 3197DOPC   C1B37629   7.979  18.794  14.422
 3197DOPC   D2B37630   7.719  18.514  14.172
 3197DOPC   C3B37631   7.909  18.084  14.032
 3197DOPC   C4B37632   7.819  17.844  13.712
 3198DOPC   NC337633  24.119  20.364  15.862
 3198DOPC   PO437634  24.569  20.584  15.952
 3198DOPC   GL137635  24.349  20.674  15.532
 3198DOPC   GL237636  24.639  20.764  15.442
 3198DOPC   C1A37637  24.109  20.884  15.222
 3198DOPC   D2A37638  23.979  21.294  14.992
 3198DOPC   C3A37639  23.699  21.304  14.732
 3198DOPC   C4A37640  23.579  21.044  14.372
 3198DOPC   C1B37641  24.599  20.794  15.092
 3198DOPC   D2B37642  24.509  21.124  14.882
 3198DOPC   C3B37643  24.599  21.224  14.492
 3198DOPC   C4B37644  24.619  21.521  14.402
 3199DOPC   NC337645   1.459  20.084  11.752
 3199DOPC   PO437646   1.369  19.574  11.762
 3199DOPC   GL137647   1.239  19.824  12.132
 3199DOPC   GL237648   1.109  19.644  12.352
 3199DOPC   C1A37649   1.259  20.164  12.412
 3199DOPC   D2A37650   1.129  20.604  12.442
 3199DOPC   C3A37651   0.869  20.624  12.892
 3199DOPC   C4A37652   0.749  20.744  13.332
 3199DOPC   C1B37653   0.919  19.714  12.602
 3199DOPC   D2B37654   0.829  20.194  12.712
 3199DOPC   C3B37655   0.619  20.274  13.132
 3199DOPC   C4B37656   0.709  20.174  13.512
 3200DOPC   NC337657   0.729  12.574  15.462
 3200DOPC   PO437658   0.909  13.024  15.222
 3200DOPC   GL137659   0.839  13.104  14.792
 3200DOPC   GL237660   0.699  12.874  14.732
 3200DOPC   C1A37661   0.979  13.124  14.422
 3200DOPC   D2A37662   0.949  13.144  14.072
 3200DOPC   C3A37663   0.799  13.554  13.772
 3200DOPC   C4A37664   0.839  13.944  13.562
 3200DOPC   C1B37665   0.489  12.984  14.332
 3200DOPC   D2B37666   0.509  13.134  13.902
 3200DOPC   C3B37667   0.749  12.834  13.762
 3200DOPC   C4B37668   0.839  12.464  13.872
 3201DOPC   NC337669  10.079  11.724  14.972
 3201DOPC   PO437670  10.179  11.884  14.462
 3201DOPC   GL137671  10.329  11.994  13.992
 3201DOPC   GL237672  10.639  12.034  13.842
 3201DOPC   C1A37673  10.149  12.034  13.572
 3201DOPC   D2A37674  10.279  12.084  13.182
 3201DOPC   C3A37675  10.299  11.884  12.902
 3201DOPC   C4A37676  10.069  11.614  12.602
 3201DOPC   C1B37677  10.649  12.134  13.512
 3201DOPC   D2B37678  10.599  12.444  13.272
 3201DOPC   C3B37679  10.359  12.624  12.812
 3201DOPC   C4B37680  10.169  12.684  12.342
 3202DOPC   NC337681  14.619   4.004  15.192
 3202DOPC   PO437682  14.579   4.054  14.742
 3202DOPC   GL137683  14.519   4.234  14.282
 3202DOPC   GL237684  14.619   4.034  14.012
 3202DOPC   C1A37685  14.289   4.384  13.922
 3202DOPC   D2A37686  13.939   4.474  13.752
 3202DOPC   C3A37687  13.809   4.904  13.522
 3202DOPC   C4A37688  13.899   5.214  13.252
 3202DOPC   C1B37689  14.819   3.954  13.542
 3202DOPC   D2B37690  14.839   4.124  13.162
 3202DOPC   C3B37691  15.099   4.464  13.012
 3202DOPC   C4B37692  15.109   4.834  12.742
 3203DOPC   NC337693  20.449  21.521  11.952
 3203DOPC   PO437694  20.239  21.681  12.292
 3203DOPC   GL137695  20.359  21.471  12.682
 3203DOPC   GL237696  19.999  21.541  12.752
 3203DOPC   C1A37697  20.179  21.114  12.952
 3203DOPC   D2A37698  20.069  20.964  13.412
 3203DOPC   C3A37699  19.879  21.304  13.792
 3203DOPC   C4A37700  19.869  21.561  14.032
 3203DOPC   C1B37701  19.649  21.264  12.912
 3203DOPC   D2B37702  19.589  21.034  13.242
 3203DOPC   C3B37703  19.389  20.974  13.732
 3203DOPC   C4B37704  19.189  20.644  13.952
 3204DOPC   NC337705  21.249  22.481  11.992
 3204DOPC   PO437706  21.049  22.671  12.342
 3204DOPC   GL137707  21.079  22.591  12.832
 3204DOPC   GL237708  21.399  22.771  12.882
 3204DOPC   C1A37709  20.949  22.341  13.232
 3204DOPC   D2A37710  21.059  22.401  13.612
 3204DOPC   C3A37711  21.109  22.201  14.002
 3204DOPC   C4A37712  21.299  22.071  14.422
 3204DOPC   C1B37713  21.409  22.641  13.342
 3204DOPC   D2B37714  21.359  22.811  13.632
 3204DOPC   C3B37715  21.579  22.381  13.922
 3204DOPC   C4B37716  21.669  21.981  13.772
 3205DOPC   NC337717  21.189   2.494  11.462
 3205DOPC   PO437718  21.439   2.674  11.702
 3205DOPC   GL137719  21.179   2.774  12.042
 3205DOPC   GL237720  21.349   2.594  12.382
 3205DOPC   C1A37721  20.829   2.604  12.332
 3205DOPC   D2A37722  20.289   2.604  12.402
 3205DOPC   C3A37723  19.969   2.324  12.522
 3205DOPC   C4A37724  19.899   2.014  12.762
 3205DOPC   C1B37725  21.179   2.784  12.712
 3205DOPC   D2B37726  21.329   3.054  13.162
 3205DOPC   C3B37727  21.529   3.044  13.592
 3205DOPC   C4B37728  21.689   3.414  13.842
 3206DOPC   NC337729   5.339   6.284  10.602
 3206DOPC   PO437730   5.029   6.374  11.022
 3206DOPC   GL137731   5.109   6.034  11.372
 3206DOPC   GL237732   5.179   6.204  11.602
 3206DOPC   C1A37733   5.349   5.764  11.702
 3206DOPC   D2A37734   5.079   5.524  11.922
 3206DOPC   C3A37735   5.169   5.264  12.262
 3206DOPC   C4A37736   5.369   4.884  12.312
 3206DOPC   C1B37737   5.659   6.164  11.712
 3206DOPC   D2B37738   5.949   6.444  11.902
 3206DOPC   C3B37739   6.209   6.634  12.222
 3206DOPC   C4B37740   6.649   6.644  12.392
 3207DOPC   NC337741   7.989   6.674  10.752
 3207DOPC   PO437742   8.319   6.574  11.092
 3207DOPC   GL137743   8.229   6.634  11.542
 3207DOPC   GL237744   8.489   6.644  11.832
 3207DOPC   C1A37745   8.079   6.464  12.082
 3207DOPC   D2A37746   7.999   6.064  12.412
 3207DOPC   C3A37747   7.669   5.744  12.442
 3207DOPC   C4A37748   7.469   5.484  12.732
 3207DOPC   C1B37749   8.669   7.074  11.792
 3207DOPC   D2B37750   8.949   7.124  12.142
 3207DOPC   C3B37751   8.939   6.644  12.252
 3207DOPC   C4B37752   8.889   6.374  12.602
 3208DOPC   NC337753   4.409  10.844  11.042
 3208DOPC   PO437754   4.159  11.264  11.042
 3208DOPC   GL137755   4.449  11.434  11.452
 3208DOPC   GL237756   4.729  11.684  11.532
 3208DOPC   C1A37757   4.299  11.574  11.842
 3208DOPC   D2A37758   4.059  11.624  12.292
 3208DOPC   C3A37759   4.149  11.554  12.762
 3208DOPC   C4A37760   4.309  11.714  13.112
 3208DOPC   C1B37761   4.749  11.654  12.062
 3208DOPC   D2B37762   4.529  11.764  12.482
 3208DOPC   C3B37763   4.749  11.734  12.922
 3208DOPC   C4B37764   5.159  11.734  12.932
 3209DOPC   NC337765  16.219   7.714  14.582
 3209DOPC   PO437766  16.159   7.324  14.812
 3209DOPC   GL137767  16.279   7.174  14.392
 3209DOPC   GL237768  16.229   7.424  14.202
 3209DOPC   C1A37769  16.369   7.074  13.932
 3209DOPC   D2A37770  16.329   6.974  13.482
 3209DOPC   C3A37771  16.749   6.854  13.212
 3209DOPC   C4A37772  17.169   6.964  13.092
 3209DOPC   C1B37773  16.269   7.474  13.672
 3209DOPC   D2B37774  16.179   7.384  13.302
 3209DOPC   C3B37775  16.389   7.114  12.972
 3209DOPC   C4B37776  16.499   6.794  12.682
 3210DOPC   NC337777   6.539   6.644  11.082
 3210DOPC   PO437778   6.189   6.784  11.252
 3210DOPC   GL137779   6.519   6.814  11.572
 3210DOPC   GL237780   6.369   6.544  11.712
 3210DOPC   C1A37781   6.569   6.964  11.962
 3210DOPC   D2A37782   6.929   6.974  12.192
 3210DOPC   C3A37783   7.339   6.924  11.982
 3210DOPC   C4A37784   7.729   7.204  11.852
 3210DOPC   C1B37785   6.689   6.514  11.922
 3210DOPC   D2B37786   7.149   6.464  11.992
 3210DOPC   C3B37787   7.209   6.034  11.942
 3210DOPC   C4B37788   7.499   5.794  11.992
 3211DOPC   NC337789  10.119   4.734  14.512
 3211DOPC   PO437790  10.419   5.074  14.542
 3211DOPC   GL137791  10.469   5.334  14.272
 3211DOPC   GL237792  10.489   5.114  14.032
 3211DOPC   C1A37793  10.469   5.674  13.972
 3211DOPC   D2A37794  10.349   5.954  13.552
 3211DOPC   C3A37795  10.379   5.814  13.132
 3211DOPC   C4A37796  10.349   5.504  12.912
 3211DOPC   C1B37797  10.439   4.944  13.562
 3211DOPC   D2B37798  10.249   4.554  13.332
 3211DOPC   C3B37799   9.969   4.584  12.972
 3211DOPC   C4B37800   9.649   4.854  12.892
 3212DOPC   NC337801   4.269  18.664  11.962
 3212DOPC   PO437802   3.989  19.014  11.762
 3212DOPC   GL137803   4.059  19.164  12.122
 3212DOPC   GL237804   3.779  19.114  12.352
 3212DOPC   C1A37805   4.369  19.394  12.312
 3212DOPC   D2A37806   4.719  19.264  12.592
 3212DOPC   C3A37807   5.179  19.554  12.742
 3212DOPC   C4A37808   5.629  19.784  12.742
 3212DOPC   C1B37809   4.019  19.284  12.662
 3212DOPC   D2B37810   4.169  19.714  12.872
 3212DOPC   C3B37811   3.949  19.924  13.102
 3212DOPC   C4B37812   3.839  20.194  13.502
 3213DOPC   NC337813   3.739  24.741  11.292
 3213DOPC   PO437814   3.729  24.241  11.482
 3213DOPC   GL137815   3.689  24.551  11.912
 3213DOPC   GL237816   3.749  24.891  11.752
 3213DOPC   C1A37817   3.689  24.891  12.242
 3213DOPC   D2A37818   3.619  25.021  12.682
 3213DOPC   C3A37819   3.389  24.971  13.112
 3213DOPC   C4A37820   3.359  24.701  13.432
 3213DOPC   C1B37821   4.139  24.851  11.972
 3213DOPC   D2B37822   4.529  24.911  12.082
 3213DOPC   C3B37823   4.789  24.611  12.292
 3213DOPC   C4B37824   5.099  24.481  12.702
 3214DOPC   NC337825  18.549  15.244  11.352
 3214DOPC   PO437826  18.639  15.414  11.682
 3214DOPC   GL137827  18.729  14.984  11.872
 3214DOPC   GL237828  18.429  14.864  11.942
 3214DOPC   C1A37829  18.919  14.774  12.182
 3214DOPC   D2A37830  19.019  14.494  12.562
 3214DOPC   C3A37831  19.359  14.724  12.832
 3214DOPC   C4A37832  19.739  14.874  12.942
 3214DOPC   C1B37833  18.459  14.804  12.412
 3214DOPC   D2B37834  18.199  14.794  12.842
 3214DOPC   C3B37835  18.179  14.504  13.202
 3214DOPC   C4B37836  18.119  13.994  13.222
 3215DOPC   NC337837   6.299  24.571  11.222
 3215DOPC   PO437838   6.499  24.751  11.542
 3215DOPC   GL137839   6.759  24.541  11.792
 3215DOPC   GL237840   6.799  24.261  11.882
 3215DOPC   C1A37841   7.029  24.591  12.232
 3215DOPC   D2A37842   7.169  24.961  12.482
 3215DOPC   C3A37843   6.989  24.941  12.882
 3215DOPC   C4A37844   7.079  25.111  13.352
 3215DOPC   C1B37845   6.879  24.131  12.382
 3215DOPC   D2B37846   7.129  23.671  12.532
 3215DOPC   C3B37847   7.059  23.301  12.842
 3215DOPC   C4B37848   7.189  22.911  13.012
 3216DOPC   NC337849  24.599   9.654  11.452
 3216DOPC   PO437850  24.369   9.804  11.692
 3216DOPC   GL137851  24.359   9.874  12.132
 3216DOPC   GL237852  24.279   9.764  12.422
 3216DOPC   C1A37853  24.269  10.304  12.342
 3216DOPC   D2A37854  24.209  10.504  12.742
 3216DOPC   C3A37855  24.059  10.594  13.222
 3216DOPC   C4A37856  24.069  10.694  13.632
 3216DOPC   C1B37857  24.089   9.984  12.802
 3216DOPC   D2B37858  23.789   9.874  13.212
 3216DOPC   C3B37859  23.589  10.234  13.442
 3216DOPC   C4B37860  23.599  10.614  13.622
 3217DOPC   NC337861  21.969   7.404  11.562
 3217DOPC   PO437862  21.579   7.464  11.542
 3217DOPC   GL137863  21.529   7.374  11.932
 3217DOPC   GL237864  21.629   7.634  12.212
 3217DOPC   C1A37865  21.559   7.164  12.312
 3217DOPC   D2A37866  21.759   6.834  12.332
 3217DOPC   C3A37867  22.079   6.714  12.762
 3217DOPC   C4A37868  22.399   6.474  12.882
 3217DOPC   C1B37869  21.639   7.574  12.702
 3217DOPC   D2B37870  21.579   7.174  12.862
 3217DOPC   C3B37871  21.309   6.904  13.102
 3217DOPC   C4B37872  21.239   6.944  13.512
 3218DOPC   NC337873  24.919  18.584  16.042
 3218DOPC   PO437874  25.319  18.324  16.122
 3218DOPC   GL137875  25.419  18.464  15.722
 3218DOPC   GL237876  25.796  18.594  15.572
 3218DOPC   C1A37877  25.449  18.574  15.212
 3218DOPC   D2A37878  25.489  18.984  15.002
 3218DOPC   C3A37879  25.389  19.434  14.962
 3218DOPC   C4A37880  25.159  19.814  14.972
 3218DOPC   C1B37881  25.666  18.064  15.382
 3218DOPC   D2B37882  25.579  17.984  15.032
 3218DOPC   C3B37883  25.529  17.584  14.852
 3218DOPC   C4B37884  25.706  17.284  14.672
 3219DOPC   NC337885  15.829  15.514  11.132
 3219DOPC   PO437886  15.929  15.894  11.372
 3219DOPC   GL137887  15.859  15.564  11.632
 3219DOPC   GL237888  15.959  15.304  11.592
 3219DOPC   C1A37889  15.689  15.534  11.992
 3219DOPC   D2A37890  15.419  15.474  12.302
 3219DOPC   C3A37891  15.529  15.324  12.762
 3219DOPC   C4A37892  15.569  15.214  13.222
 3219DOPC   C1B37893  15.739  15.014  11.902
 3219DOPC   D2B37894  15.469  14.724  12.172
 3219DOPC   C3B37895  15.419  14.664  12.632
 3219DOPC   C4B37896  15.359  14.774  13.032
 3220DOPC   NC337897   0.689   7.604  15.142
 3220DOPC   PO437898   0.599   8.034  15.132
 3220DOPC   GL137899   0.339   7.784  14.862
 3220DOPC   GL237900   0.011   7.904  14.852
 3220DOPC   C1A37901   0.309   7.694  14.412
 3220DOPC   D2A37902   0.509   7.384  13.982
 3220DOPC   C3A37903   0.369   6.964  13.932
 3220DOPC   C4A37904   0.309   6.524  13.812
 3220DOPC   C1B37905  -0.049   8.114  14.412
 3220DOPC   D2B37906   0.149   8.054  14.022
 3220DOPC   C3B37907   0.079   8.294  13.622
 3220DOPC   C4B37908   0.269   8.614  13.332
 3221DOPC   NC337909  13.289   8.004  10.672
 3221DOPC   PO437910  13.439   8.574  10.492
 3221DOPC   GL137911  13.639   8.644  10.932
 3221DOPC   GL237912  13.689   8.294  11.072
 3221DOPC   C1A37913  13.789   8.684  11.332
 3221DOPC   D2A37914  13.789   8.594  11.812
 3221DOPC   C3A37915  13.589   8.434  12.202
 3221DOPC   C4A37916  13.329   8.154  12.502
 3221DOPC   C1B37917  13.589   8.204  11.562
 3221DOPC   D2B37918  13.299   8.164  11.902
 3221DOPC   C3B37919  12.849   8.334  11.862
 3221DOPC   C4B37920  12.459   8.314  12.102
 3222DOPC   NC337921  13.149   7.044  10.582
 3222DOPC   PO437922  13.429   6.774  10.562
 3222DOPC   GL137923  13.319   6.884  11.022
 3222DOPC   GL237924  13.119   7.134  11.142
 3222DOPC   C1A37925  13.329   6.774  11.462
 3222DOPC   D2A37926  13.379   6.544  11.832
 3222DOPC   C3A37927  13.779   6.624  12.052
 3222DOPC   C4A37928  13.849   6.774  12.522
 3222DOPC   C1B37929  12.889   6.854  11.312
 3222DOPC   D2B37930  12.859   6.584  11.592
 3222DOPC   C3B37931  13.119   6.204  11.592
 3222DOPC   C4B37932  13.459   6.014  11.652
 3223DOPC   NC337933  12.419   9.564  10.492
 3223DOPC   PO437934  12.619   9.914  10.472
 3223DOPC   GL137935  12.569   9.844  10.852
 3223DOPC   GL237936  12.819  10.034  10.972
 3223DOPC   C1A37937  12.569   9.524  11.252
 3223DOPC   D2A37938  12.609   9.154  11.552
 3223DOPC   C3A37939  12.889   9.204  11.932
 3223DOPC   C4A37940  13.129   9.624  12.172
 3223DOPC   C1B37941  12.709   9.974  11.392
 3223DOPC   D2B37942  12.609  10.114  11.902
 3223DOPC   C3B37943  12.439  10.494  12.132
 3223DOPC   C4B37944  12.189  10.714  12.482
 3224DOPC   NC337945   6.019   7.884  14.752
 3224DOPC   PO437946   5.759   7.644  14.662
 3224DOPC   GL137947   5.719   7.924  14.292
 3224DOPC   GL237948   5.469   7.884  14.322
 3224DOPC   C1A37949   5.789   8.214  14.002
 3224DOPC   D2A37950   5.989   8.594  13.832
 3224DOPC   C3A37951   6.179   8.584  13.362
 3224DOPC   C4A37952   6.579   8.624  13.132
 3224DOPC   C1B37953   5.519   7.854  13.762
 3224DOPC   D2B37954   5.619   7.724  13.302
 3224DOPC   C3B37955   5.259   7.934  12.962
 3224DOPC   C4B37956   4.799   7.784  12.922
 3225DOPC   NC337957   3.549   7.864  11.572
 3225DOPC   PO437958   3.409   8.284  11.522
 3225DOPC   GL137959   3.249   8.144  11.922
 3225DOPC   GL237960   3.039   8.284  12.012
 3225DOPC   C1A37961   3.279   7.784  12.312
 3225DOPC   D2A37962   3.529   7.444  12.632
 3225DOPC   C3A37963   3.949   7.674  12.952
 3225DOPC   C4A37964   4.369   7.874  13.162
 3225DOPC   C1B37965   2.759   8.344  12.302
 3225DOPC   D2B37966   2.589   8.624  12.532
 3225DOPC   C3B37967   2.499   8.544  13.002
 3225DOPC   C4B37968   2.839   8.404  13.312
 3226DOPC   NC337969  13.429   4.284  14.542
 3226DOPC   PO437970  13.059   4.484  14.272
 3226DOPC   GL137971  13.329   4.724  13.932
 3226DOPC   GL237972  13.269   5.054  13.822
 3226DOPC   C1A37973  13.409   4.594  13.562
 3226DOPC   D2A37974  13.529   4.304  13.252
 3226DOPC   C3A37975  13.929   4.304  13.252
 3226DOPC   C4A37976  14.329   4.624  13.262
 3226DOPC   C1B37977  12.999   5.344  13.472
 3226DOPC   D2B37978  12.999   5.434  13.042
 3226DOPC   C3B37979  12.949   5.114  12.692
 3226DOPC   C4B37980  12.909   4.834  12.372
 3227DOPC   NC337981   4.469  11.454  15.092
 3227DOPC   PO437982   4.029  11.624  15.072
 3227DOPC   GL137983   4.159  11.744  14.652
 3227DOPC   GL237984   4.169  11.944  14.372
 3227DOPC   C1A37985   4.419  11.594  14.112
 3227DOPC   D2A37986   4.559  11.334  13.792
 3227DOPC   C3A37987   4.999  11.034  13.762
 3227DOPC   C4A37988   5.419  11.174  13.732
 3227DOPC   C1B37989   4.059  12.224  14.012
 3227DOPC   D2B37990   4.209  12.414  13.602
 3227DOPC   C3B37991   4.189  12.234  13.272
 3227DOPC   C4B37992   4.449  12.154  12.892
 3228DOPC   NC337993   2.939  14.624  10.702
 3228DOPC   PO437994   3.109  14.494  11.122
 3228DOPC   GL137995   3.349  14.394  11.502
 3228DOPC   GL237996   3.599  14.644  11.682
 3228DOPC   C1A37997   3.489  14.084  11.812
 3228DOPC   D2A37998   3.499  13.824  12.152
 3228DOPC   C3A37999   3.119  13.494  12.202
 3228DOPC   C4A38000   2.699  13.614  12.082
 3228DOPC   C1B38001   3.279  14.634  12.002
 3228DOPC   D2B38002   3.329  14.284  12.322
 3228DOPC   C3B38003   3.589  14.354  12.712
 3228DOPC   C4B38004   3.639  14.574  13.072
 3229DOPC   NC338005   4.219   7.524  11.432
 3229DOPC   PO438006   4.209   7.204  11.512
 3229DOPC   GL138007   4.169   7.134  11.902
 3229DOPC   GL238008   4.379   7.254  12.002
 3229DOPC   C1A38009   3.979   7.154  12.272
 3229DOPC   D2A38010   3.979   7.244  12.762
 3229DOPC   C3A38011   4.029   6.924  13.132
 3229DOPC   C4A38012   4.289   6.734  13.412
 3229DOPC   C1B38013   4.429   7.564  12.382
 3229DOPC   D2B38014   4.479   7.404  12.772
 3229DOPC   C3B38015   4.899   7.094  12.832
 3229DOPC   C4B38016   5.259   6.924  13.092
 3230DOPC   NC338017  10.079  23.611  10.782
 3230DOPC   PO438018   9.979  23.241  11.082
 3230DOPC   GL138019   9.839  22.961  11.512
 3230DOPC   GL238020  10.009  22.751  11.682
 3230DOPC   C1A38021   9.839  23.181  11.922
 3230DOPC   D2A38022   9.799  23.131  12.352
 3230DOPC   C3A38023   9.919  23.241  12.752
 3230DOPC   C4A38024  10.249  23.471  12.962
 3230DOPC   C1B38025  10.299  22.961  12.072
 3230DOPC   D2B38026  10.279  23.051  12.502
 3230DOPC   C3B38027  10.239  22.841  12.832
 3230DOPC   C4B38028  10.079  22.951  13.252
 3231DOPC   NC338029  16.069   2.204  11.422
 3231DOPC   PO438030  15.679   2.084  11.482
 3231DOPC   GL138031  15.459   1.864  11.792
 3231DOPC   GL238032  15.669   1.644  11.792
 3231DOPC   C1A38033  15.339   1.924  12.202
 3231DOPC   D2A38034  14.909   2.014  12.472
 3231DOPC   C3A38035  14.849   2.154  12.842
 3231DOPC   C4A38036  14.819   2.394  13.192
 3231DOPC   C1B38037  15.769   1.724  12.262
 3231DOPC   D2B38038  15.619   1.714  12.702
 3231DOPC   C3B38039  15.629   2.164  12.912
 3231DOPC   C4B38040  15.359   2.254  13.162
 3232DOPC   NC338041  12.859  21.741  11.882
 3232DOPC   PO438042  13.249  22.041  11.792
 3232DOPC   GL138043  13.199  21.871  12.272
 3232DOPC   GL238044  13.309  22.061  12.502
 3232DOPC   C1A38045  13.099  21.681  12.632
 3232DOPC   D2A38046  13.069  21.441  13.042
 3232DOPC   C3A38047  13.069  21.691  13.432
 3232DOPC   C4A38048  12.809  21.821  13.642
 3232DOPC   C1B38049  13.469  21.891  12.902
 3232DOPC   D2B38050  13.399  22.041  13.282
 3232DOPC   C3B38051  13.459  21.851  13.632
 3232DOPC   C4B38052  13.209  21.631  13.952
 3233DOPC   NC338053   0.609  21.841  15.412
 3233DOPC   PO438054   0.319  21.541  15.612
 3233DOPC   GL138055   0.279  21.361  15.222
 3233DOPC   GL238056   0.289  21.591  14.982
 3233DOPC   C1A38057   0.159  21.064  14.892
 3233DOPC   D2A38058  -0.059  21.014  14.542
 3233DOPC   C3A38059  -0.049  21.314  14.172
 3233DOPC   C4A38060  -0.149  21.641  14.162
 3233DOPC   C1B38061   0.249  21.921  14.862
 3233DOPC   D2B38062   0.169  22.161  14.512
 3233DOPC   C3B38063   0.509  22.371  14.382
 3233DOPC   C4B38064   0.749  22.391  13.982
 3234DOPC   NC338065   7.829  14.374  15.302
 3234DOPC   PO438066   7.759  14.294  14.862
 3234DOPC   GL138067   7.729  14.524  14.532
 3234DOPC   GL238068   7.949  14.314  14.282
 3234DOPC   C1A38069   7.639  14.624  14.072
 3234DOPC   D2A38070   7.529  14.724  13.672
 3234DOPC   C3A38071   7.319  14.454  13.422
 3234DOPC   C4A38072   7.079  14.354  13.102
 3234DOPC   C1B38073   7.859  14.084  13.942
 3234DOPC   D2B38074   7.709  13.864  13.602
 3234DOPC   C3B38075   7.569  14.064  13.262
 3234DOPC   C4B38076   7.579  14.134  12.842
 3235DOPC   NC338077   7.699  13.894  14.602
 3235DOPC   PO438078   7.729  13.494  14.392
 3235DOPC   GL138079   7.579  13.714  14.102
 3235DOPC   GL238080   7.329  13.444  14.092
 3235DOPC   C1A38081   7.359  14.094  13.832
 3235DOPC   D2A38082   7.049  14.544  13.932
 3235DOPC   C3A38083   6.859  14.604  13.472
 3235DOPC   C4A38084   6.649  14.634  13.092
 3235DOPC   C1B38085   7.119  13.634  13.762
 3235DOPC   D2B38086   6.769  13.554  13.452
 3235DOPC   C3B38087   6.509  13.264  13.542
 3235DOPC   C4B38088   6.599  12.784  13.632
 3236DOPC   NC338089  10.299   1.864  11.032
 3236DOPC   PO438090  10.649   1.874  11.252
 3236DOPC   GL138091  10.399   2.014  11.582
 3236DOPC   GL238092  10.109   2.154  11.492
 3236DOPC   C1A38093  10.359   2.084  12.092
 3236DOPC   D2A38094  10.179   2.274  12.372
 3236DOPC   C3A38095  10.309   2.224  12.832
 3236DOPC   C4A38096  10.319   1.904  13.042
 3236DOPC   C1B38097   9.719   2.434  11.512
 3236DOPC   D2B38098   9.689   2.884  11.552
 3236DOPC   C3B38099   9.839   2.944  12.012
 3236DOPC   C4B38100   9.979   3.254  12.242
 3237DOPC   NC338101   0.699   2.444  11.332
 3237DOPC   PO438102   0.819   2.304  11.652
 3237DOPC   GL138103   1.219   2.464  12.002
 3237DOPC   GL238104   1.339   2.264  12.132
 3237DOPC   C1A38105   1.449   2.764  12.062
 3237DOPC   D2A38106   1.299   2.954  12.382
 3237DOPC   C3A38107   1.789   3.094  12.652
 3237DOPC   C4A38108   2.029   3.144  13.052
 3237DOPC   C1B38109   1.259   2.324  12.532
 3237DOPC   D2B38110   0.959   2.344  12.872
 3237DOPC   C3B38111   0.469   2.184  12.952
 3237DOPC   C4B38112   0.089   2.334  12.952
 3238DOPC   NC338113   3.259  24.201  11.792
 3238DOPC   PO438114   2.849  24.041  11.852
 3238DOPC   GL138115   2.799  24.281  12.152
 3238DOPC   GL238116   2.679  24.651  12.272
 3238DOPC   C1A38117   2.779  24.241  12.542
 3238DOPC   D2A38118   3.089  24.281  12.882
 3238DOPC   C3A38119   2.949  24.651  13.182
 3238DOPC   C4A38120   2.709  24.711  13.552
 3238DOPC   C1B38121   2.779  25.121  12.452
 3238DOPC   D2B38122   2.599  25.531  12.582
 3238DOPC   C3B38123   2.599  25.551  13.032
 3238DOPC   C4B38124   2.689  25.581  13.482
 3239DOPC   NC338125  22.219   4.224  15.452
 3239DOPC   PO438126  21.989   3.834  15.412
 3239DOPC   GL138127  21.889   3.904  15.012
 3239DOPC   GL238128  21.669   4.024  14.882
 3239DOPC   C1A38129  22.179   3.704  14.762
 3239DOPC   D2A38130  22.529   3.604  14.622
 3239DOPC   C3A38131  22.769   3.564  14.222
 3239DOPC   C4A38132  23.039   3.534  13.772
 3239DOPC   C1B38133  21.449   3.924  14.532
 3239DOPC   D2B38134  21.399   3.664  14.222
 3239DOPC   C3B38135  21.449   3.904  14.002
 3239DOPC   C4B38136  21.769   3.934  13.692
 3240DOPC   NC338137   0.449  20.454  16.282
 3240DOPC   PO438138   0.369  20.504  15.882
 3240DOPC   GL138139   0.379  20.094  15.472
 3240DOPC   GL238140   0.569  19.844  15.492
 3240DOPC   C1A38141   0.389  20.194  14.992
 3240DOPC   D2A38142   0.399  20.144  14.482
 3240DOPC   C3A38143   0.559  20.404  14.122
 3240DOPC   C4A38144   0.619  20.674  13.832
 3240DOPC   C1B38145   0.679  19.704  15.042
 3240DOPC   D2B38146   0.349  19.704  14.602
 3240DOPC   C3B38147  -0.019  19.394  14.432
 3240DOPC   C4B38148  -0.349  19.084  14.422
 3241DOPC   NC338149  11.289  11.554  14.052
 3241DOPC   PO438150  11.099  11.964  14.012
 3241DOPC   GL138151  11.089  11.774  13.632
 3241DOPC   GL238152  11.169  11.404  13.632
 3241DOPC   C1A38153  11.269  11.704  13.192
 3241DOPC   D2A38154  11.339  11.984  12.912
 3241DOPC   C3A38155  11.129  12.164  12.612
 3241DOPC   C4A38156  10.779  12.074  12.142
 3241DOPC   C1B38157  10.749  11.484  13.442
 3241DOPC   D2B38158  10.439  11.464  13.182
 3241DOPC   C3B38159  10.359  11.294  12.812
 3241DOPC   C4B38160  10.339  10.994  12.472
 3242DOPC   NC338161  23.909  20.804  11.872
 3242DOPC   PO438162  23.629  21.164  11.932
 3242DOPC   GL138163  23.549  20.964  12.262
 3242DOPC   GL238164  23.799  20.664  12.412
 3242DOPC   C1A38165  23.419  20.674  12.732
 3242DOPC   D2A38166  23.459  20.244  12.532
 3242DOPC   C3A38167  23.419  19.904  12.882
 3242DOPC   C4A38168  23.259  19.574  13.072
 3242DOPC   C1B38169  23.809  20.484  12.912
 3242DOPC   D2B38170  23.679  20.464  13.372
 3242DOPC   C3B38171  23.389  20.654  13.592
 3242DOPC   C4B38172  23.279  20.964  13.962
 3243DOPC   NC338173  15.039  13.234  14.082
 3243DOPC   PO438174  15.099  13.544  14.372
 3243DOPC   GL138175  15.029  13.784  14.062
 3243DOPC   GL238176  15.289  13.584  13.832
 3243DOPC   C1A38177  15.249  14.054  13.732
 3243DOPC   D2A38178  15.299  14.404  13.372
 3243DOPC   C3A38179  15.249  14.304  12.902
 3243DOPC   C4A38180  15.299  14.094  12.582
 3243DOPC   C1B38181  15.439  13.644  13.502
 3243DOPC   D2B38182  15.499  13.904  13.142
 3243DOPC   C3B38183  15.749  14.364  12.932
 3243DOPC   C4B38184  15.839  14.864  12.862
 3244DOPC   NC338185   7.989  21.891  11.152
 3244DOPC   PO438186   7.769  21.741  11.522
 3244DOPC   GL138187   7.949  21.801  11.912
 3244DOPC   GL238188   8.179  21.721  12.052
 3244DOPC   C1A38189   7.679  21.811  12.282
 3244DOPC   D2A38190   7.799  21.771  12.662
 3244DOPC   C3A38191   7.749  21.371  12.882
 3244DOPC   C4A38192   7.989  21.074  13.162
 3244DOPC   C1B38193   8.579  21.831  12.322
 3244DOPC   D2B38194   8.819  21.741  12.742
 3244DOPC   C3B38195   9.019  21.621  13.012
 3244DOPC   C4B38196   9.389  21.461  13.382
 3245DOPC   NC338197  24.619  24.481  12.232
 3245DOPC   PO438198  25.079  24.521  12.172
 3245DOPC   GL138199  25.229  24.221  12.462
 3245DOPC   GL238200  25.479  23.981  12.522
 3245DOPC   C1A38201  25.519  24.351  12.892
 3245DOPC   D2A38202  25.666  24.231  13.322
 3245DOPC   C3A38203  25.449  24.111  13.682
 3245DOPC   C4A38204  25.179  24.381  13.782
 3245DOPC   C1B38205  25.169  23.991  12.932
 3245DOPC   D2B38206  24.959  23.941  13.322
 3245DOPC   C3B38207  24.729  24.191  13.722
 3245DOPC   C4B38208  24.319  24.261  13.962
 3246DOPC   NC338209   1.079  23.741   8.232
 3246DOPC   PO438210   0.879  23.911   7.842
 3246DOPC   GL138211   0.859  23.661   7.502
 3246DOPC   GL238212   1.149  23.741   7.222
 3246DOPC   C1A38213   0.689  23.801   7.132
 3246DOPC   D2A38214   0.319  24.021   6.992
 3246DOPC   C3A38215   0.429  24.311   6.712
 3246DOPC   C4A38216   0.519  24.431   6.312
 3246DOPC   C1B38217   1.129  23.561   6.852
 3246DOPC   D2B38218   1.129  23.231   6.662
 3246DOPC   C3B38219   1.079  23.201   6.162
 3246DOPC   C4B38220   0.999  23.161   5.722
 3247DOPC   NC338221  23.979   8.794  11.512
 3247DOPC   PO438222  24.119   8.414  11.712
 3247DOPC   GL138223  23.949   8.674  12.032
 3247DOPC   GL238224  23.999   9.084  12.212
 3247DOPC   C1A38225  23.619   8.784  12.312
 3247DOPC   D2A38226  23.389   8.594  12.572
 3247DOPC   C3A38227  23.109   8.594  12.902
 3247DOPC   C4A38228  22.759   8.394  13.082
 3247DOPC   C1B38229  24.059   9.284  12.622
 3247DOPC   D2B38230  24.279   9.494  12.922
 3247DOPC   C3B38231  24.109   9.544  13.352
 3247DOPC   C4B38232  23.929   9.264  13.692
 3248DOPC   NC338233  22.889   1.834  12.162
 3248DOPC   PO438234  22.619   1.444  12.182
 3248DOPC   GL138235  22.479   1.584  12.542
 3248DOPC   GL238236  22.159   1.714  12.622
 3248DOPC   C1A38237  22.539   1.374  12.932
 3248DOPC   D2A38238  22.649   1.784  13.212
 3248DOPC   C3A38239  22.489   2.214  13.032
 3248DOPC   C4A38240  22.229   2.524  12.862
 3248DOPC   C1B38241  22.149   1.624  13.092
 3248DOPC   D2B38242  22.049   1.334  13.422
 3248DOPC   C3B38243  22.439   1.324  13.572
 3248DOPC   C4B38244  22.719   1.214  13.862
 3249DOPC   NC338245  21.329  19.334  12.322
 3249DOPC   PO438246  20.919  19.134  12.432
 3249DOPC   GL138247  21.009  19.554  12.622
 3249DOPC   GL238248  20.779  19.894  12.772
 3249DOPC   C1A38249  21.079  19.344  13.012
 3249DOPC   D2A38250  20.949  19.314  13.462
 3249DOPC   C3A38251  21.059  19.774  13.702
 3249DOPC   C4A38252  21.179  19.984  14.002
 3249DOPC   C1B38253  20.599  20.394  12.702
 3249DOPC   D2B38254  20.459  20.644  13.072
 3249DOPC   C3B38255  20.749  20.674  13.412
 3249DOPC   C4B38256  21.019  20.764  13.752
 3250DOPC   NC338257  16.089  20.344  11.932
 3250DOPC   PO438258  15.829  20.554  11.632
 3250DOPC   GL138259  15.659  20.574  12.102
 3250DOPC   GL238260  15.589  20.784  12.302
 3250DOPC   C1A38261  15.269  20.324  12.312
 3250DOPC   D2A38262  14.969  20.084  12.302
 3250DOPC   C3A38263  14.929  19.804  12.702
 3250DOPC   C4A38264  15.019  19.694  13.142
 3250DOPC   C1B38265  15.609  20.704  12.712
 3250DOPC   D2B38266  15.589  20.674  13.152
 3250DOPC   C3B38267  15.569  21.044  13.312
 3250DOPC   C4B38268  15.579  21.134  13.722
 3251DOPC   NC338269  14.329  17.764  10.892
 3251DOPC   PO438270  14.649  18.034  11.092
 3251DOPC   GL138271  14.659  17.964  11.562
 3251DOPC   GL238272  14.469  18.234  11.652
 3251DOPC   C1A38273  14.549  17.704  11.952
 3251DOPC   D2A38274  14.669  17.624  12.362
 3251DOPC   C3A38275  14.729  17.384  12.682
 3251DOPC   C4A38276  14.479  17.334  13.062
 3251DOPC   C1B38277  14.799  18.404  11.892
 3251DOPC   D2B38278  15.099  18.634  12.172
 3251DOPC   C3B38279  15.349  18.374  12.402
 3251DOPC   C4B38280  15.509  18.364  12.772
 3252DOPC   NC338281  22.879  17.334  11.962
 3252DOPC   PO438282  22.699  17.404  12.292
 3252DOPC   GL138283  22.609  17.154  12.542
 3252DOPC   GL238284  22.329  16.954  12.462
 3252DOPC   C1A38285  22.789  16.944  12.882
 3252DOPC   D2A38286  23.159  16.954  13.192
 3252DOPC   C3A38287  23.009  17.144  13.542
 3252DOPC   C4A38288  23.059  17.474  13.882
 3252DOPC   C1B38289  22.359  16.754  12.882
 3252DOPC   D2B38290  22.599  16.434  13.112
 3252DOPC   C3B38291  22.789  16.114  13.342
 3252DOPC   C4B38292  22.999  15.794  13.072
 3253DOPC   NC338293   0.149  11.824  11.992
 3253DOPC   PO438294   0.259  12.384  12.072
 3253DOPC   GL138295   0.609  12.134  12.182
 3253DOPC   GL238296   0.419  12.004  12.472
 3253DOPC   C1A38297   0.919  11.874  12.472
 3253DOPC   D2A38298   0.969  12.044  12.892
 3253DOPC   C3A38299   1.109  11.744  13.252
 3253DOPC   C4A38300   1.349  11.364  13.222
 3253DOPC   C1B38301   0.519  11.944  12.902
 3253DOPC   D2B38302   0.599  11.774  13.332
 3253DOPC   C3B38303   0.219  11.614  13.612
 3253DOPC   C4B38304  -0.069  11.334  13.932
 3254DOPC   NC338305   3.999  17.144  11.502
 3254DOPC   PO438306   3.779  17.044  12.012
 3254DOPC   GL138307   3.879  17.204  12.472
 3254DOPC   GL238308   4.149  17.484  12.372
 3254DOPC   C1A38309   3.919  17.254  12.902
 3254DOPC   D2A38310   4.009  17.344  13.312
 3254DOPC   C3A38311   4.139  17.674  13.522
 3254DOPC   C4A38312   4.109  17.584  14.002
 3254DOPC   C1B38313   4.499  17.644  12.622
 3254DOPC   D2B38314   4.589  18.024  12.882
 3254DOPC   C3B38315   4.349  18.044  13.232
 3254DOPC   C4B38316   4.309  18.214  13.662
 3255DOPC   NC338317   4.869  14.234  10.992
 3255DOPC   PO438318   5.239  14.264  11.092
 3255DOPC   GL138319   5.169  14.024  11.522
 3255DOPC   GL238320   5.199  14.244  11.722
 3255DOPC   C1A38321   5.299  13.654  11.862
 3255DOPC   D2A38322   5.339  13.574  12.302
 3255DOPC   C3A38323   5.609  13.264  12.472
 3255DOPC   C4A38324   5.619  12.904  12.662
 3255DOPC   C1B38325   5.189  14.094  12.152
 3255DOPC   D2B38326   4.929  14.254  12.402
 3255DOPC   C3B38327   4.959  13.914  12.772
 3255DOPC   C4B38328   4.749  13.564  13.062
 3256DOPC   NC338329   7.829  19.984  11.432
 3256DOPC   PO438330   8.169  19.794  11.712
 3256DOPC   GL138331   8.619  19.854  11.872
 3256DOPC   GL238332   8.729  19.544  11.802
 3256DOPC   C1A38333   8.719  19.864  12.332
 3256DOPC   D2A38334   8.699  20.084  12.732
 3256DOPC   C3A38335   8.299  20.174  12.902
 3256DOPC   C4A38336   7.859  20.244  12.972
 3256DOPC   C1B38337   8.639  19.254  12.172
 3256DOPC   D2B38338   8.579  19.324  12.562
 3256DOPC   C3B38339   8.169  19.294  12.682
 3256DOPC   C4B38340   8.049  18.854  12.842
 3257DOPC   NC338341   7.549  15.314  14.782
 3257DOPC   PO438342   7.779  15.594  14.932
 3257DOPC   GL138343   7.699  15.614  14.422
 3257DOPC   GL238344   7.509  15.854  14.292
 3257DOPC   C1A38345   7.659  15.604  13.922
 3257DOPC   D2A38346   7.619  15.324  13.632
 3257DOPC   C3A38347   7.459  15.204  13.342
 3257DOPC   C4A38348   7.109  14.984  13.212
 3257DOPC   C1B38349   7.109  15.974  14.412
 3257DOPC   D2B38350   6.629  16.104  14.342
 3257DOPC   C3B38351   6.379  16.094  13.982
 3257DOPC   C4B38352   6.169  15.724  13.822
 3258DOPC   NC338353   0.129   4.934  11.232
 3258DOPC   PO438354   0.619   4.694  11.332
 3258DOPC   GL138355   0.739   4.614  11.762
 3258DOPC   GL238356   1.039   4.444  11.892
 3258DOPC   C1A38357   0.619   4.384  12.182
 3258DOPC   D2A38358   0.599   4.254  12.612
 3258DOPC   C3A38359   0.509   4.394  13.062
 3258DOPC   C4A38360   0.189   4.614  13.042
 3258DOPC   C1B38361   1.119   4.334  12.262
 3258DOPC   D2B38362   0.929   3.894  12.292
 3258DOPC   C3B38363   0.469   3.744  12.212
 3258DOPC   C4B38364   0.079   3.634  12.462
 3259DOPC   NC338365  24.659   7.764  11.352
 3259DOPC   PO438366  24.589   8.054  11.722
 3259DOPC   GL138367  24.649   7.904  12.222
 3259DOPC   GL238368  24.899   8.104  12.112
 3259DOPC   C1A38369  24.689   8.194  12.582
 3259DOPC   D2A38370  24.579   8.524  12.922
 3259DOPC   C3A38371  24.179   8.794  13.052
 3259DOPC   C4A38372  23.849   9.054  13.202
 3259DOPC   C1B38373  25.069   7.914  12.552
 3259DOPC   D2B38374  25.189   7.564  12.852
 3259DOPC   C3B38375  24.829   7.384  13.012
 3259DOPC   C4B38376  24.729   7.104  13.322
 3260DOPC   NC338377  16.639  14.434  15.202
 3260DOPC   PO438378  16.429  14.114  14.802
 3260DOPC   GL138379  16.469  14.294  14.392
 3260DOPC   GL238380  16.669  14.234  14.192
 3260DOPC   C1A38381  16.239  14.274  14.032
 3260DOPC   D2A38382  16.059  14.684  13.862
 3260DOPC   C3A38383  16.079  15.154  13.972
 3260DOPC   C4A38384  16.379  15.404  13.672
 3260DOPC   C1B38385  16.819  14.124  13.802
 3260DOPC   D2B38386  17.039  13.884  13.562
 3260DOPC   C3B38387  17.269  13.514  13.712
 3260DOPC   C4B38388  17.439  13.114  13.772
 3261DOPC   NC338389   9.929   6.164  10.592
 3261DOPC   PO438390   9.849   5.774  10.892
 3261DOPC   GL138391   9.799   5.544  11.302
 3261DOPC   GL238392  10.079   5.804  11.382
 3261DOPC   C1A38393   9.749   5.504  11.682
 3261DOPC   D2A38394   9.459   5.574  11.972
 3261DOPC   C3A38395   9.059   5.804  11.912
 3261DOPC   C4A38396   8.879   5.984  12.322
 3261DOPC   C1B38397  10.089   5.974  11.772
 3261DOPC   D2B38398   9.829   6.154  11.992
 3261DOPC   C3B38399   9.629   6.414  11.712
 3261DOPC   C4B38400   9.429   6.664  12.022
 3262DOPC   NC338401  19.409   3.004  11.672
 3262DOPC   PO438402  19.079   2.724  11.602
 3262DOPC   GL138403  19.109   2.764  12.072
 3262DOPC   GL238404  19.319   2.534  12.272
 3262DOPC   C1A38405  18.999   3.004  12.372
 3262DOPC   D2A38406  18.819   3.184  12.802
 3262DOPC   C3A38407  19.089   3.374  13.122
 3262DOPC   C4A38408  19.059   3.614  13.402
 3262DOPC   C1B38409  19.029   2.544  12.602
 3262DOPC   D2B38410  18.869   2.724  12.952
 3262DOPC   C3B38411  18.479   2.784  13.142
 3262DOPC   C4B38412  18.239   2.814  13.552
 3263DOPC   NC338413  12.989  20.314  15.252
 3263DOPC   PO438414  12.709  20.484  15.072
 3263DOPC   GL138415  12.689  20.464  14.662
 3263DOPC   GL238416  12.459  20.734  14.632
 3263DOPC   C1A38417  12.809  20.234  14.252
 3263DOPC   D2A38418  12.899  20.044  13.782
 3263DOPC   C3A38419  13.209  20.164  13.512
 3263DOPC   C4A38420  13.589  20.474  13.462
 3263DOPC   C1B38421  12.419  20.594  14.242
 3263DOPC   D2B38422  12.679  20.724  14.002
 3263DOPC   C3B38423  12.779  20.714  13.562
 3263DOPC   C4B38424  12.709  21.084  13.312
 3264DOPC   NC338425   0.389   9.854  11.522
 3264DOPC   PO438426   0.759   9.714  11.302
 3264DOPC   GL138427   0.959   9.484  11.792
 3264DOPC   GL238428   1.039   9.744  11.942
 3264DOPC   C1A38429   0.619   9.484  12.162
 3264DOPC   D2A38430   0.409   9.664  12.542
 3264DOPC   C3A38431   0.021   9.384  12.632
 3264DOPC   C4A38432  -0.299   9.064  12.762
 3264DOPC   C1B38433   0.899   9.824  12.362
 3264DOPC   D2B38434   0.839  10.084  12.752
 3264DOPC   C3B38435   1.069  10.124  13.212
 3264DOPC   C4B38436   1.469  10.244  13.352
 3265DOPC   NC338437  12.579  19.514  15.042
 3265DOPC   PO438438  12.289  19.664  14.852
 3265DOPC   GL138439  12.279  19.454  14.512
 3265DOPC   GL238440  12.559  19.244  14.582
 3265DOPC   C1A38441  11.989  19.484  14.182
 3265DOPC   D2A38442  11.729  19.514  13.702
 3265DOPC   C3A38443  11.849  19.474  13.262
 3265DOPC   C4A38444  11.649  19.464  12.852
 3265DOPC   C1B38445  12.549  19.224  14.112
 3265DOPC   D2B38446  12.629  19.084  13.702
 3265DOPC   C3B38447  12.789  18.664  13.592
 3265DOPC   C4B38448  12.429  18.264  13.522
 3266DOPC   NC338449  15.289  16.154  10.752
 3266DOPC   PO438450  15.429  15.904  11.102
 3266DOPC   GL138451  15.409  15.864  11.482
 3266DOPC   GL238452  15.429  16.054  11.742
 3266DOPC   C1A38453  15.199  15.564  11.832
 3266DOPC   D2A38454  14.859  15.584  12.252
 3266DOPC   C3A38455  15.059  15.474  12.672
 3266DOPC   C4A38456  15.179  15.534  13.172
 3266DOPC   C1B38457  15.189  16.004  12.022
 3266DOPC   D2B38458  15.219  15.924  12.422
 3266DOPC   C3B38459  15.469  15.874  12.822
 3266DOPC   C4B38460  15.689  16.174  13.122
 3267DOPC   NC338461  19.819  21.214  15.832
 3267DOPC   PO438462  20.179  20.994  15.662
 3267DOPC   GL138463  20.489  21.044  15.282
 3267DOPC   GL238464  20.839  21.154  15.492
 3267DOPC   C1A38465  20.669  20.984  14.932
 3267DOPC   D2A38466  20.909  20.784  14.642
 3267DOPC   C3A38467  20.929  20.404  14.572
 3267DOPC   C4A38468  20.929  20.424  14.152
 3267DOPC   C1B38469  21.039  21.354  15.112
 3267DOPC   D2B38470  21.219  21.234  14.732
 3267DOPC   C3B38471  21.199  21.581  14.472
 3267DOPC   C4B38472  21.389  21.631  13.922
 3268DOPC   NC338473  12.529  23.491  15.392
 3268DOPC   PO438474  12.219  23.231  15.222
 3268DOPC   GL138475  12.319  23.631  14.952
 3268DOPC   GL238476  12.609  23.571  14.892
 3268DOPC   C1A38477  12.279  24.101  14.672
 3268DOPC   D2A38478  12.329  24.231  14.192
 3268DOPC   C3A38479  12.209  24.251  13.812
 3268DOPC   C4A38480  11.949  24.061  13.462
 3268DOPC   C1B38481  12.569  23.811  14.452
 3268DOPC   D2B38482  12.379  23.771  14.012
 3268DOPC   C3B38483  12.599  23.801  13.722
 3268DOPC   C4B38484  12.569  23.931  13.382
 3269DOPC   NC338485   7.959  14.604  10.892
 3269DOPC   PO438486   8.349  14.774  11.052
 3269DOPC   GL138487   8.379  15.014  11.242
 3269DOPC   GL238488   8.089  15.074  11.392
 3269DOPC   C1A38489   8.589  15.094  11.642
 3269DOPC   D2A38490   8.539  15.514  11.752
 3269DOPC   C3A38491   8.719  15.454  12.152
 3269DOPC   C4A38492   8.599  15.094  12.452
 3269DOPC   C1B38493   8.089  15.264  11.812
 3269DOPC   D2B38494   8.159  15.504  12.242
 3269DOPC   C3B38495   8.129  15.324  12.582
 3269DOPC   C4B38496   7.819  14.864  12.692
 3270DOPC   NC338497  15.579  13.554  10.142
 3270DOPC   PO438498  15.349  13.844  10.442
 3270DOPC   GL138499  15.319  13.794  10.862
 3270DOPC   GL238500  15.579  13.794  11.082
 3270DOPC   C1A38501  15.089  13.504  11.082
 3270DOPC   D2A38502  14.949  13.164  11.292
 3270DOPC   C3A38503  15.209  13.014  11.712
 3270DOPC   C4A38504  15.629  12.824  11.652
 3270DOPC   C1B38505  15.619  13.884  11.512
 3270DOPC   D2B38506  15.559  13.724  11.952
 3270DOPC   C3B38507  15.589  13.234  11.952
 3270DOPC   C4B38508  15.659  12.984  12.252
 3271DOPC   NC338509  19.549  23.611  15.942
 3271DOPC   PO438510  19.249  23.881  15.972
 3271DOPC   GL138511  18.939  23.721  15.542
 3271DOPC   GL238512  18.969  23.771  15.132
 3271DOPC   C1A38513  18.529  23.871  15.292
 3271DOPC   D2A38514  18.279  23.781  15.032
 3271DOPC   C3A38515  17.899  23.741  15.152
 3271DOPC   C4A38516  17.499  23.641  15.302
 3271DOPC   C1B38517  18.699  23.461  14.892
 3271DOPC   D2B38518  18.569  23.451  14.532
 3271DOPC   C3B38519  18.689  23.221  14.132
 3271DOPC   C4B38520  18.999  22.961  13.982
 3272DOPC   NC338521  16.519  13.314  14.482
 3272DOPC   PO438522  16.249  12.914  14.532
 3272DOPC   GL138523  16.309  13.024  14.102
 3272DOPC   GL238524  16.439  13.374  14.002
 3272DOPC   C1A38525  16.329  12.694  13.742
 3272DOPC   D2A38526  16.349  12.754  13.242
 3272DOPC   C3A38527  16.619  12.554  13.012
 3272DOPC   C4A38528  17.049  12.744  12.872
 3272DOPC   C1B38529  16.799  13.664  14.022
 3272DOPC   D2B38530  17.249  14.004  13.982
 3272DOPC   C3B38531  17.539  13.974  13.622
 3272DOPC   C4B38532  17.659  13.784  13.252
 3273DOPC   NC338533  13.529  16.734  10.882
 3273DOPC   PO438534  13.179  17.074  10.872
 3273DOPC   GL138535  13.009  17.134  11.232
 3273DOPC   GL238536  12.979  16.854  11.442
 3273DOPC   C1A38537  12.999  17.374  11.552
 3273DOPC   D2A38538  12.809  17.354  12.042
 3273DOPC   C3A38539  13.089  17.524  12.252
 3273DOPC   C4A38540  13.239  17.684  12.632
 3273DOPC   C1B38541  13.299  16.584  11.702
 3273DOPC   D2B38542  13.679  16.584  12.062
 3273DOPC   C3B38543  13.639  16.364  12.492
 3273DOPC   C4B38544  13.719  16.074  12.862
 3274DOPC   NC338545   0.539  21.681  11.982
 3274DOPC   PO438546   0.869  21.531  11.962
 3274DOPC   GL138547   0.739  21.344  12.422
 3274DOPC   GL238548   0.469  21.511  12.472
 3274DOPC   C1A38549   0.889  21.084  12.732
 3274DOPC   D2A38550   1.069  21.064  13.162
 3274DOPC   C3A38551   1.339  20.734  13.032
 3274DOPC   C4A38552   1.609  20.834  13.302
 3274DOPC   C1B38553   0.609  21.451  12.872
 3274DOPC   D2B38554   0.649  21.441  13.182
 3274DOPC   C3B38555   0.759  21.214  13.542
 3274DOPC   C4B38556   0.639  21.174  13.932
 3275DOPC   NC338557  25.549  24.471  12.222
 3275DOPC   PO438558  25.359  24.911  12.102
 3275DOPC   GL138559  25.289  24.941  12.472
 3275DOPC   GL238560  25.279  25.291  12.512
 3275DOPC   C1A38561  25.519  24.971  12.822
 3275DOPC   D2A38562  25.746  24.741  13.172
 3275DOPC   C3A38563  25.529  24.651  13.622
 3275DOPC   C4A38564  25.726  24.411  13.932
 3275DOPC   C1B38565  25.369  25.381  13.012
 3275DOPC   D2B38566  25.439  25.521  13.362
 3275DOPC   C3B38567  25.469  25.941  13.602
 3275DOPC   C4B38568  25.079  26.161  13.802
 3276DOPC   NC338569  17.779   6.974  14.512
 3276DOPC   PO438570  17.839   7.404  14.652
 3276DOPC   GL138571  17.599   7.344  14.312
 3276DOPC   GL238572  17.279   7.254  14.542
 3276DOPC   C1A38573  17.679   7.414  13.912
 3276DOPC   D2A38574  17.579   7.584  13.562
 3276DOPC   C3A38575  17.309   7.474  13.252
 3276DOPC   C4A38576  17.489   7.254  12.912
 3276DOPC   C1B38577  16.869   7.154  14.262
 3276DOPC   D2B38578  16.869   7.044  13.822
 3276DOPC   C3B38579  16.739   7.254  13.542
 3276DOPC   C4B38580  16.779   7.384  13.232
 3277DOPC   NC338581  11.799  25.061  11.012
 3277DOPC   PO438582  12.099  25.331  10.892
 3277DOPC   GL138583  12.079  25.381  11.322
 3277DOPC   GL238584  12.339  25.291  11.352
 3277DOPC   C1A38585  11.839  25.311  11.602
 3277DOPC   D2A38586  11.839  25.111  11.932
 3277DOPC   C3A38587  11.519  24.911  12.072
 3277DOPC   C4A38588  11.259  25.171  12.272
 3277DOPC   C1B38589  12.229  25.571  11.752
 3277DOPC   D2B38590  11.929  25.661  12.152
 3277DOPC   C3B38591  11.789  25.311  12.412
 3277DOPC   C4B38592  11.429  25.161  12.722
 3278DOPC   NC338593  18.839  20.994  12.122
 3278DOPC   PO438594  18.499  20.824  12.392
 3278DOPC   GL138595  18.269  20.694  12.682
 3278DOPC   GL238596  18.499  20.754  12.922
 3278DOPC   C1A38597  17.959  20.704  13.002
 3278DOPC   D2A38598  17.689  20.394  13.262
 3278DOPC   C3A38599  17.239  20.274  13.312
 3278DOPC   C4A38600  16.899  20.434  13.492
 3278DOPC   C1B38601  18.349  20.704  13.322
 3278DOPC   D2B38602  18.659  20.584  13.702
 3278DOPC   C3B38603  19.069  20.494  13.442
 3278DOPC   C4B38604  19.469  20.564  13.382
 3279DOPC   NC338605   7.439  23.621  15.442
 3279DOPC   PO438606   7.709  23.401  15.302
 3279DOPC   GL138607   7.839  23.431  14.882
 3279DOPC   GL238608   7.859  23.721  14.642
 3279DOPC   C1A38609   8.249  23.251  14.632
 3279DOPC   D2A38610   8.549  22.981  14.412
 3279DOPC   C3A38611   8.429  22.931  13.962
 3279DOPC   C4A38612   8.469  22.641  13.542
 3279DOPC   C1B38613   7.459  23.771  14.352
 3279DOPC   D2B38614   7.419  23.591  14.042
 3279DOPC   C3B38615   7.219  23.591  13.592
 3279DOPC   C4B38616   7.119  23.721  13.172
 3280DOPC   NC338617  14.799   2.004  11.802
 3280DOPC   PO438618  14.719   2.314  11.502
 3280DOPC   GL138619  14.649   2.714  11.712
 3280DOPC   GL238620  14.869   2.934  11.872
 3280DOPC   C1A38621  14.439   3.064  11.832
 3280DOPC   D2A38622  14.289   3.274  12.002
 3280DOPC   C3A38623  14.059   3.344  12.392
 3280DOPC   C4A38624  13.849   3.634  12.612
 3280DOPC   C1B38625  14.859   2.574  12.212
 3280DOPC   D2B38626  14.589   2.414  12.482
 3280DOPC   C3B38627  14.459   2.014  12.472
 3280DOPC   C4B38628  14.579   1.644  12.272
 3281DOPC   NC338629  13.989   8.784  10.482
 3281DOPC   PO438630  14.109   9.044  10.792
 3281DOPC   GL138631  13.829   9.214  11.122
 3281DOPC   GL238632  13.629   9.474  11.292
 3281DOPC   C1A38633  13.849   9.154  11.632
 3281DOPC   D2A38634  14.029   9.324  12.012
 3281DOPC   C3A38635  13.879   9.674  12.242
 3281DOPC   C4A38636  13.889  10.054  12.542
 3281DOPC   C1B38637  14.119   9.554  11.512
 3281DOPC   D2B38638  14.349   9.724  11.782
 3281DOPC   C3B38639  14.529  10.034  11.792
 3281DOPC   C4B38640  14.769  10.204  12.112
 3282DOPC   NC338641  18.649   2.804  11.362
 3282DOPC   PO438642  18.539   3.214  11.562
 3282DOPC   GL138643  18.499   3.424  11.922
 3282DOPC   GL238644  18.159   3.284  12.052
 3282DOPC   C1A38645  18.569   3.264  12.332
 3282DOPC   D2A38646  18.409   3.014  12.732
 3282DOPC   C3A38647  18.159   2.644  12.702
 3282DOPC   C4A38648  17.939   2.444  12.392
 3282DOPC   C1B38649  18.079   3.414  12.452
 3282DOPC   D2B38650  18.169   3.454  12.932
 3282DOPC   C3B38651  18.079   3.114  13.192
 3282DOPC   C4B38652  17.979   2.704  13.152
 3283DOPC   NC338653  15.569  18.944  15.512
 3283DOPC   PO438654  15.859  19.274  15.342
 3283DOPC   GL138655  15.919  19.344  14.992
 3283DOPC   GL238656  15.769  19.244  14.722
 3283DOPC   C1A38657  16.239  19.344  14.692
 3283DOPC   D2A38658  16.429  19.234  14.282
 3283DOPC   C3A38659  16.509  18.854  14.162
 3283DOPC   C4A38660  16.899  18.844  13.902
 3283DOPC   C1B38661  15.869  19.394  14.372
 3283DOPC   D2B38662  15.779  19.554  13.912
 3283DOPC   C3B38663  15.789  19.394  13.532
 3283DOPC   C4B38664  15.779  19.034  13.492
 3284DOPC   NC338665   9.419  23.071  11.162
 3284DOPC   PO438666   9.259  23.481  11.172
 3284DOPC   GL138667   9.229  23.671  11.602
 3284DOPC   GL238668   9.389  23.851  11.622
 3284DOPC   C1A38669   9.319  23.561  12.072
 3284DOPC   D2A38670   9.569  23.541  12.512
 3284DOPC   C3A38671   9.409  23.271  12.852
 3284DOPC   C4A38672   9.189  23.241  13.292
 3284DOPC   C1B38673   9.529  24.151  11.922
 3284DOPC   D2B38674   9.599  24.681  11.992
 3284DOPC   C3B38675   9.349  24.881  12.342
 3284DOPC   C4B38676   9.389  25.021  12.742
 3285DOPC   NC338677  24.509   1.274  16.232
 3285DOPC   PO438678  24.549   1.054  15.772
 3285DOPC   GL138679  24.639   0.864  15.402
 3285DOPC   GL238680  24.339   0.934  15.252
 3285DOPC   C1A38681  24.809   1.044  15.052
 3285DOPC   D2A38682  24.929   0.904  14.612
 3285DOPC   C3A38683  25.299   1.024  14.302
 3285DOPC   C4A38684  25.319   1.054  13.872
 3285DOPC   C1B38685  24.249   0.594  15.012
 3285DOPC   D2B38686  24.069   0.274  14.722
 3285DOPC   C3B38687  23.709  -0.036  14.722
 3285DOPC   C4B38688  23.439  -0.186  15.012
 3286DOPC   NC338689  23.749  19.594  12.122
 3286DOPC   PO438690  23.699  19.214  12.372
 3286DOPC   GL138691  23.739  19.554  12.612
 3286DOPC   GL238692  24.059  19.784  12.452
 3286DOPC   C1A38693  23.759  19.444  13.052
 3286DOPC   D2A38694  24.049  19.404  13.412
 3286DOPC   C3A38695  24.149  19.794  13.612
 3286DOPC   C4A38696  24.269  19.974  14.032
 3286DOPC   C1B38697  23.929  20.004  12.872
 3286DOPC   D2B38698  23.779  19.944  13.292
 3286DOPC   C3B38699  23.639  19.704  13.432
 3286DOPC   C4B38700  23.409  19.544  13.692
 3287DOPC   NC338701  19.869  22.031  15.392
 3287DOPC   PO438702  19.529  22.111  15.562
 3287DOPC   GL138703  19.619  22.391  15.142
 3287DOPC   GL238704  19.349  22.271  14.982
 3287DOPC   C1A38705  19.729  22.341  14.722
 3287DOPC   D2A38706  19.619  22.131  14.392
 3287DOPC   C3A38707  19.729  22.081  13.952
 3287DOPC   C4A38708  19.719  21.791  13.542
 3287DOPC   C1B38709  19.199  22.341  14.572
 3287DOPC   D2B38710  19.219  22.511  14.232
 3287DOPC   C3B38711  19.199  22.151  13.982
 3287DOPC   C4B38712  19.379  21.751  13.912
 3288DOPC   NC338713   1.549   4.524  15.612
 3288DOPC   PO438714   1.519   4.104  15.362
 3288DOPC   GL138715   1.619   3.904  14.972
 3288DOPC   GL238716   1.879   4.104  14.872
 3288DOPC   C1A38717   1.469   3.594  14.652
 3288DOPC   D2A38718   1.219   3.674  14.322
 3288DOPC   C3A38719   1.449   3.614  13.932
 3288DOPC   C4A38720   1.629   3.564  13.452
 3288DOPC   C1B38721   1.609   4.084  14.502
 3288DOPC   D2B38722   1.479   4.074  14.122
 3288DOPC   C3B38723   1.139   3.944  13.712
 3288DOPC   C4B38724   1.259   3.884  13.312
 3289DOPC   NC338725  13.349  20.874  11.282
 3289DOPC   PO438726  13.079  20.734  10.872
 3289DOPC   GL138727  13.079  20.494  11.302
 3289DOPC   GL238728  13.329  20.364  11.592
 3289DOPC   C1A38729  12.799  20.354  11.672
 3289DOPC   D2A38730  12.449  20.094  11.562
 3289DOPC   C3A38731  12.219  20.114  11.902
 3289DOPC   C4A38732  12.299  19.974  12.272
 3289DOPC   C1B38733  13.189  20.034  11.832
 3289DOPC   D2B38734  12.879  19.794  11.782
 3289DOPC   C3B38735  12.689  19.974  12.012
 3289DOPC   C4B38736  12.509  20.444  12.152
 3290DOPC   NC338737  14.059  21.511  15.322
 3290DOPC   PO438738  14.469  21.551  15.452
 3290DOPC   GL138739  14.529  21.541  15.042
 3290DOPC   GL238740  14.219  21.641  14.862
 3290DOPC   C1A38741  14.839  21.681  14.762
 3290DOPC   D2A38742  15.079  21.951  14.422
 3290DOPC   C3A38743  15.359  21.771  13.982
 3290DOPC   C4A38744  15.579  21.741  13.652
 3290DOPC   C1B38745  13.949  21.791  14.552
 3290DOPC   D2B38746  13.539  21.811  14.712
 3290DOPC   C3B38747  13.339  21.461  14.532
 3290DOPC   C4B38748  13.339  21.154  14.202
 3291DOPC   NC338749   5.379   3.274  10.972
 3291DOPC   PO438750   5.529   3.224  11.372
 3291DOPC   GL138751   5.669   3.244  11.752
 3291DOPC   GL238752   5.969   3.204  11.642
 3291DOPC   C1A38753   5.819   3.194  12.142
 3291DOPC   D2A38754   5.859   3.264  12.572
 3291DOPC   C3A38755   6.119   3.664  12.762
 3291DOPC   C4A38756   5.989   4.014  13.102
 3291DOPC   C1B38757   6.019   3.614  11.732
 3291DOPC   D2B38758   6.189   3.604  12.142
 3291DOPC   C3B38759   6.329   3.324  12.402
 3291DOPC   C4B38760   6.519   2.904  12.392
 3292DOPC   NC338761  14.139   9.654  10.212
 3292DOPC   PO438762  13.859   9.404  10.432
 3292DOPC   GL138763  14.129   9.574  10.782
 3292DOPC   GL238764  14.139   9.904  10.812
 3292DOPC   C1A38765  14.429   9.464  11.142
 3292DOPC   D2A38766  14.619   9.364  11.532
 3292DOPC   C3A38767  14.819   9.004  11.542
 3292DOPC   C4A38768  14.629   8.654  11.702
 3292DOPC   C1B38769  13.879   9.874  11.202
 3292DOPC   D2B38770  13.529   9.904  11.472
 3292DOPC   C3B38771  13.629   9.654  11.722
 3292DOPC   C4B38772  13.489   9.354  11.932
 3293DOPC   NC338773   2.979   2.374  11.672
 3293DOPC   PO438774   2.929   2.784  11.682
 3293DOPC   GL138775   2.929   2.754  12.152
 3293DOPC   GL238776   3.119   2.874  12.352
 3293DOPC   C1A38777   2.719   2.474  12.422
 3293DOPC   D2A38778   2.859   2.384  12.742
 3293DOPC   C3A38779   3.129   2.014  12.712
 3293DOPC   C4A38780   3.589   1.894  12.762
 3293DOPC   C1B38781   3.009   2.924  12.782
 3293DOPC   D2B38782   3.039   2.704  13.112
 3293DOPC   C3B38783   3.009   2.294  13.212
 3293DOPC   C4B38784   2.859   1.904  13.502
 3294DOPC   NC338785  12.249  11.534   9.862
 3294DOPC   PO438786  12.369  11.294  10.152
 3294DOPC   GL138787  12.419  11.264  10.532
 3294DOPC   GL238788  12.489  11.564  10.732
 3294DOPC   C1A38789  12.199  11.104  10.912
 3294DOPC   D2A38790  11.979  11.384  11.132
 3294DOPC   C3A38791  11.999  11.554  11.512
 3294DOPC   C4A38792  12.069  11.494  11.872
 3294DOPC   C1B38793  12.629  11.364  11.062
 3294DOPC   D2B38794  13.049  11.304  11.242
 3294DOPC   C3B38795  13.019  11.204  11.672
 3294DOPC   C4B38796  13.259  11.064  11.922
 3295DOPC   NC338797  23.079  16.344  11.652
 3295DOPC   PO438798  22.829  16.004  11.842
 3295DOPC   GL138799  22.929  15.754  12.252
 3295DOPC   GL238800  23.219  15.784  12.392
 3295DOPC   C1A38801  22.949  15.454  12.632
 3295DOPC   D2A38802  22.919  15.294  13.112
 3295DOPC   C3A38803  22.999  14.954  13.322
 3295DOPC   C4A38804  23.329  14.644  13.292
 3295DOPC   C1B38805  23.019  15.994  12.652
 3295DOPC   D2B38806  22.589  15.784  12.802
 3295DOPC   C3B38807  22.349  15.844  13.162
 3295DOPC   C4B38808  22.639  15.594  13.382
 3296DOPC   NC338809  13.469  22.931  11.862
 3296DOPC   PO438810  13.059  23.111  11.842
 3296DOPC   GL138811  13.019  22.661  12.042
 3296DOPC   GL238812  13.219  22.431  12.142
 3296DOPC   C1A38813  12.829  22.661  12.422
 3296DOPC   D2A38814  12.499  22.671  12.742
 3296DOPC   C3A38815  12.409  23.101  12.632
 3296DOPC   C4A38816  12.069  23.281  12.802
 3296DOPC   C1B38817  13.329  22.601  12.522
 3296DOPC   D2B38818  13.409  22.541  13.012
 3296DOPC   C3B38819  13.799  22.761  13.152
 3296DOPC   C4B38820  14.219  22.951  13.062
 3297DOPC   NC338821  11.669  21.741  10.832
 3297DOPC   PO438822  11.629  21.441  11.252
 3297DOPC   GL138823  11.679  21.104  11.562
 3297DOPC   GL238824  11.979  21.004  11.672
 3297DOPC   C1A38825  11.519  21.074  11.922
 3297DOPC   D2A38826  11.659  20.884  12.282
 3297DOPC   C3A38827  11.789  21.064  12.732
 3297DOPC   C4A38828  11.849  20.744  13.082
 3297DOPC   C1B38829  12.109  21.084  12.062
 3297DOPC   D2B38830  12.239  21.234  12.432
 3297DOPC   C3B38831  12.059  21.541  12.682
 3297DOPC   C4B38832  12.049  21.771  13.122
 3298DOPC   NC338833  22.179  24.001  12.392
 3298DOPC   PO438834  22.279  23.691  12.692
 3298DOPC   GL138835  22.429  23.741  13.112
 3298DOPC   GL238836  22.689  23.991  13.072
 3298DOPC   C1A38837  22.349  23.731  13.552
 3298DOPC   D2A38838  22.429  23.811  14.032
 3298DOPC   C3A38839  22.229  23.691  14.392
 3298DOPC   C4A38840  22.209  23.511  14.782
 3298DOPC   C1B38841  22.759  24.141  13.482
 3298DOPC   D2B38842  22.959  24.251  13.872
 3298DOPC   C3B38843  23.259  24.511  13.932
 3298DOPC   C4B38844  23.659  24.371  13.992
 3299DOPC   NC338845   6.069  21.911   7.762
 3299DOPC   PO438846   6.489  22.111   7.662
 3299DOPC   GL138847   6.789  21.871   7.482
 3299DOPC   GL238848   7.209  22.011   7.602
 3299DOPC   C1A38849   7.059  21.651   7.172
 3299DOPC   D2A38850   7.419  21.364   6.982
 3299DOPC   C3A38851   7.609  21.501   6.612
 3299DOPC   C4A38852   7.699  21.771   6.192
 3299DOPC   C1B38853   7.119  22.151   7.222
 3299DOPC   D2B38854   6.949  22.081   6.762
 3299DOPC   C3B38855   6.669  22.491   6.592
 3299DOPC   C4B38856   6.899  22.911   6.422
 3300DOPC   NC338857  19.779   0.384  12.442
 3300DOPC   PO438858  19.609  -0.036  12.422
 3300DOPC   GL138859  19.299   0.104  12.652
 3300DOPC   GL238860  19.039  -0.106  12.702
 3300DOPC   C1A38861  19.169   0.264  13.042
 3300DOPC   D2A38862  18.929   0.554  13.312
 3300DOPC   C3A38863  18.499   0.584  13.512
 3300DOPC   C4A38864  18.189   0.354  13.812
 3300DOPC   C1B38865  19.279  -0.226  13.102
 3300DOPC   D2B38866  19.719  -0.186  13.222
 3300DOPC   C3B38867  19.899   0.164  13.342
 3300DOPC   C4B38868  20.069   0.524  13.192
 3301DOPC   NC338869   4.639  10.384  11.442
 3301DOPC   PO438870   4.319  10.164  11.592
 3301DOPC   GL138871   4.639  10.444  11.952
 3301DOPC   GL238872   4.909  10.294  12.052
 3301DOPC   C1A38873   4.849  10.764  12.082
 3301DOPC   D2A38874   5.009  10.984  12.452
 3301DOPC   C3A38875   5.269  10.794  12.752
 3301DOPC   C4A38876   5.319  10.954  13.212
 3301DOPC   C1B38877   5.129  10.384  12.442
 3301DOPC   D2B38878   5.549  10.434  12.772
 3301DOPC   C3B38879   5.769  10.804  12.652
 3301DOPC   C4B38880   5.959  11.144  12.362
 3302DOPC   NC338881  23.979   5.864  11.292
 3302DOPC   PO438882  24.369   5.934  11.612
 3302DOPC   GL138883  24.519   5.774  11.902
 3302DOPC   GL238884  24.369   5.554  12.112
 3302DOPC   C1A38885  24.819   5.894  12.312
 3302DOPC   D2A38886  25.009   5.854  12.712
 3302DOPC   C3A38887  24.959   5.654  13.092
 3302DOPC   C4A38888  24.769   5.724  13.502
 3302DOPC   C1B38889  24.389   5.564  12.532
 3302DOPC   D2B38890  24.559   5.544  12.872
 3302DOPC   C3B38891  24.569   5.334  13.272
 3302DOPC   C4B38892  24.379   5.104  13.632
 3303DOPC   NC338893  15.119  18.144  11.312
 3303DOPC   PO438894  15.589  18.044  11.482
 3303DOPC   GL138895  15.709  17.954  12.002
 3303DOPC   GL238896  16.019  17.964  11.962
 3303DOPC   C1A38897  15.509  17.844  12.422
 3303DOPC   D2A38898  15.189  17.944  12.712
 3303DOPC   C3A38899  15.279  17.924  13.062
 3303DOPC   C4A38900  15.549  18.184  13.422
 3303DOPC   C1B38901  15.859  18.224  12.382
 3303DOPC   D2B38902  15.899  18.604  12.522
 3303DOPC   C3B38903  15.779  18.784  12.932
 3303DOPC   C4B38904  15.519  18.714  13.162
 3304DOPC   NC338905  16.659  23.901  16.172
 3304DOPC   PO438906  16.509  23.961  15.762
 3304DOPC   GL138907  16.769  24.201  15.422
 3304DOPC   GL238908  16.949  24.541  15.322
 3304DOPC   C1A38909  16.779  24.391  14.902
 3304DOPC   D2A38910  16.769  24.581  14.582
 3304DOPC   C3A38911  16.539  24.911  14.362
 3304DOPC   C4A38912  16.499  25.151  13.992
 3304DOPC   C1B38913  17.159  24.731  14.942
 3304DOPC   D2B38914  17.309  24.521  14.672
 3304DOPC   C3B38915  17.159  24.441  14.332
 3304DOPC   C4B38916  16.779  24.561  14.042
 3305DOPC   NC338917  23.969  18.254   7.532
 3305DOPC   PO438918  23.499  18.144   7.742
 3305DOPC   GL138919  23.569  18.224   7.222
 3305DOPC   GL238920  23.589  18.534   7.242
 3305DOPC   C1A38921  23.709  17.984   6.762
 3305DOPC   D2A38922  23.959  17.674   6.522
 3305DOPC   C3A38923  24.319  17.724   6.492
 3305DOPC   C4A38924  24.749  17.874   6.332
 3305DOPC   C1B38925  23.469  18.544   6.802
 3305DOPC   D2B38926  23.669  18.464   6.392
 3305DOPC   C3B38927  23.629  18.644   6.052
 3305DOPC   C4B38928  23.349  18.704   5.752
 3306DOPC   NC338929  10.769   7.264  10.932
 3306DOPC   PO438930  10.549   7.594  11.072
 3306DOPC   GL138931  10.299   7.624  11.472
 3306DOPC   GL238932  10.029   7.434  11.422
 3306DOPC   C1A38933  10.309   7.704  11.912
 3306DOPC   D2A38934  10.459   7.544  12.262
 3306DOPC   C3A38935  10.829   7.554  12.442
 3306DOPC   C4A38936  10.959   7.494  12.922
 3306DOPC   C1B38937   9.859   7.394  11.812
 3306DOPC   D2B38938   9.929   7.484  12.252
 3306DOPC   C3B38939   9.689   7.714  12.482
 3306DOPC   C4B38940   9.529   8.014  12.862
 3307DOPC   NC338941  22.189  22.541  16.262
 3307DOPC   PO438942  21.839  22.701  16.112
 3307DOPC   GL138943  21.659  22.941  15.752
 3307DOPC   GL238944  21.319  22.921  15.662
 3307DOPC   C1A38945  21.689  23.201  15.362
 3307DOPC   D2A38946  21.869  22.961  15.032
 3307DOPC   C3A38947  21.679  22.811  14.622
 3307DOPC   C4A38948  21.699  22.811  14.172
 3307DOPC   C1B38949  21.499  22.691  15.252
 3307DOPC   D2B38950  21.479  22.461  14.892
 3307DOPC   C3B38951  21.109  22.541  14.532
 3307DOPC   C4B38952  21.189  22.721  14.142
 3308DOPC   NC338953  17.189  25.411  11.662
 3308DOPC   PO438954  17.509  25.171  11.882
 3308DOPC   GL138955  17.569  25.241  12.382
 3308DOPC   GL238956  17.899  25.421  12.472
 3308DOPC   C1A38957  17.519  25.451  12.842
 3308DOPC   D2A38958  17.399  25.521  13.252
 3308DOPC   C3A38959  16.979  25.631  13.172
 3308DOPC   C4A38960  16.579  25.941  13.262
 3308DOPC   C1B38961  18.029  25.251  12.902
 3308DOPC   D2B38962  18.169  25.031  13.312
 3308DOPC   C3B38963  18.269  25.141  13.732
 3308DOPC   C4B38964  18.429  24.871  13.992
 3309DOPC   NC338965  23.779  21.621   7.862
 3309DOPC   PO438966  24.069  21.861   7.782
 3309DOPC   GL138967  24.279  21.781   7.382
 3309DOPC   GL238968  24.629  21.991   7.452
 3309DOPC   C1A38969  24.119  21.841   6.972
 3309DOPC   D2A38970  24.179  21.741   6.542
 3309DOPC   C3A38971  23.879  21.951   6.272
 3309DOPC   C4A38972  23.749  22.381   6.132
 3309DOPC   C1B38973  24.699  22.271   7.172
 3309DOPC   D2B38974  24.739  22.491   6.842
 3309DOPC   C3B38975  25.099  22.661   6.712
 3309DOPC   C4B38976  25.379  22.751   6.372
 3310DOPC   NC338977  23.739   7.804  15.622
 3310DOPC   PO438978  23.839   7.424  15.412
 3310DOPC   GL138979  23.509   7.384  15.112
 3310DOPC   GL238980  23.219   7.494  15.112
 3310DOPC   C1A38981  23.439   7.324  14.642
 3310DOPC   D2A38982  23.469   7.334  14.242
 3310DOPC   C3A38983  23.289   7.314  13.982
 3310DOPC   C4A38984  22.929   7.184  13.782
 3310DOPC   C1B38985  23.369   7.804  14.832
 3310DOPC   D2B38986  23.639   7.844  14.502
 3310DOPC   C3B38987  23.669   8.144  14.202
 3310DOPC   C4B38988  23.609   8.494  13.862
 3311DOPC   NC338989   8.169  20.634  11.372
 3311DOPC   PO438990   7.989  20.374  11.732
 3311DOPC   GL138991   7.749  20.064  11.942
 3311DOPC   GL238992   8.089  20.014  12.162
 3311DOPC   C1A38993   7.449  20.014  12.272
 3311DOPC   D2A38994   7.409  19.804  12.662
 3311DOPC   C3A38995   7.419  20.014  13.082
 3311DOPC   C4A38996   7.639  20.274  13.412
 3311DOPC   C1B38997   7.959  19.974  12.532
 3311DOPC   D2B38998   7.949  19.714  12.952
 3311DOPC   C3B38999   7.729  19.744  13.232
 3311DOPC   C4B39000   7.379  19.684  13.492
 3312DOPC   NC339001   5.159   0.344  15.492
 3312DOPC   PO439002   4.729   0.214  15.342
 3312DOPC   GL139003   4.809   0.114  14.892
 3312DOPC   GL239004   4.499   0.264  14.772
 3312DOPC   C1A39005   5.039   0.154  14.492
 3312DOPC   D2A39006   5.259   0.384  14.232
 3312DOPC   C3A39007   5.339   0.524  13.852
 3312DOPC   C4A39008   5.479   0.944  13.732
 3312DOPC   C1B39009   4.579   0.244  14.332
 3312DOPC   D2B39010   4.779   0.544  14.052
 3312DOPC   C3B39011   4.549   0.584  13.632
 3312DOPC   C4B39012   4.629   0.934  13.292
 3313DOPC   NC339013  10.429  22.151  11.302
 3313DOPC   PO439014  10.109  22.411  11.302
 3313DOPC   GL139015  10.119  22.211  11.692
 3313DOPC   GL239016  10.339  21.801  11.792
 3313DOPC   C1A39017  10.099  22.061  12.152
 3313DOPC   D2A39018   9.869  21.841  12.502
 3313DOPC   C3A39019   9.859  21.401  12.552
 3313DOPC   C4A39020   9.639  20.964  12.582
 3313DOPC   C1B39021  10.349  21.621  12.162
 3313DOPC   D2B39022  10.409  21.561  12.572
 3313DOPC   C3B39023  10.129  21.621  12.942
 3313DOPC   C4B39024   9.689  21.691  13.012
 3314DOPC   NC339025   5.269  23.491  15.812
 3314DOPC   PO439026   5.039  23.441  15.452
 3314DOPC   GL139027   4.899  23.351  15.002
 3314DOPC   GL239028   4.589  23.281  14.802
 3314DOPC   C1A39029   5.039  23.321  14.542
 3314DOPC   D2A39030   5.059  23.281  14.102
 3314DOPC   C3A39031   5.439  23.361  13.822
 3314DOPC   C4A39032   5.749  23.151  13.612
 3314DOPC   C1B39033   4.559  23.451  14.302
 3314DOPC   D2B39034   4.839  23.751  14.202
 3314DOPC   C3B39035   4.939  23.561  13.712
 3314DOPC   C4B39036   5.269  23.531  13.392
 3315DOPC   NC339037  11.469   0.374  11.172
 3315DOPC   PO439038  11.859   0.204  11.052
 3315DOPC   GL139039  12.039   0.304  11.412
 3315DOPC   GL239040  11.939   0.654  11.372
 3315DOPC   C1A39041  12.129   0.444  11.862
 3315DOPC   D2A39042  12.159   0.694  12.202
 3315DOPC   C3A39043  12.079   0.544  12.562
 3315DOPC   C4A39044  11.729   0.544  12.872
 3315DOPC   C1B39045  11.799   0.794  11.762
 3315DOPC   D2B39046  11.679   0.624  12.272
 3315DOPC   C3B39047  11.479   0.904  12.522
 3315DOPC   C4B39048  11.579   1.024  12.922
 3316DOPC   NC339049  24.809  16.604  15.952
 3316DOPC   PO439050  24.359  16.814  15.902
 3316DOPC   GL139051  24.289  16.844  15.512
 3316DOPC   GL239052  24.099  17.164  15.362
 3316DOPC   C1A39053  24.109  16.704  15.192
 3316DOPC   D2A39054  24.169  16.684  14.712
 3316DOPC   C3A39055  24.479  16.844  14.392
 3316DOPC   C4A39056  24.759  16.644  14.172
 3316DOPC   C1B39057  24.009  17.144  14.922
 3316DOPC   D2B39058  23.789  17.524  14.762
 3316DOPC   C3B39059  23.859  17.564  14.332
 3316DOPC   C4B39060  23.699  17.444  13.982
 3317DOPC   NC339061  19.979   7.534  10.932
 3317DOPC   PO439062  19.819   7.514  11.292
 3317DOPC   GL139063  19.539   7.354  11.682
 3317DOPC   GL239064  19.609   7.624  11.802
 3317DOPC   C1A39065  19.459   6.984  11.962
 3317DOPC   D2A39066  19.079   6.944  12.212
 3317DOPC   C3A39067  19.059   6.864  12.762
 3317DOPC   C4A39068  18.989   6.924  13.172
 3317DOPC   C1B39069  19.629   7.484  12.192
 3317DOPC   D2B39070  19.689   7.164  12.472
 3317DOPC   C3B39071  19.429   7.094  12.682
 3317DOPC   C4B39072  19.009   7.314  12.852
 3318DOPC   NC339073  19.439   7.254  15.192
 3318DOPC   PO439074  19.719   7.494  15.462
 3318DOPC   GL139075  19.649   7.724  14.972
 3318DOPC   GL239076  19.469   7.484  14.742
 3318DOPC   C1A39077  19.609   7.894  14.452
 3318DOPC   D2A39078  19.499   7.954  14.072
 3318DOPC   C3A39079  19.759   7.974  13.682
 3318DOPC   C4A39080  19.949   8.224  13.402
 3318DOPC   C1B39081  19.929   7.544  14.542
 3318DOPC   D2B39082  20.109   7.944  14.412
 3318DOPC   C3B39083  20.129   8.024  14.022
 3318DOPC   C4B39084  20.349   7.994  13.662
 3319DOPC   NC339085  22.669   0.524  12.442
 3319DOPC   PO439086  22.809   0.964  12.322
 3319DOPC   GL139087  22.849   1.114  12.652
 3319DOPC   GL239088  22.759   0.834  12.852
 3319DOPC   C1A39089  22.989   1.574  12.822
 3319DOPC   D2A39090  22.949   1.974  12.712
 3319DOPC   C3A39091  23.049   2.334  12.992
 3319DOPC   C4A39092  22.919   2.284  13.372
 3319DOPC   C1B39093  22.699   0.954  13.152
 3319DOPC   D2B39094  22.919   0.774  13.532
 3319DOPC   C3B39095  22.959   0.444  13.622
 3319DOPC   C4B39096  23.379   0.414  13.632
 3320DOPC   NC339097   4.819   7.614  15.212
 3320DOPC   PO439098   4.519   7.944  15.152
 3320DOPC   GL139099   4.559   7.854  14.732
 3320DOPC   GL239100   4.779   7.714  14.732
 3320DOPC   C1A39101   4.519   7.994  14.302
 3320DOPC   D2A39102   4.309   8.024  13.952
 3320DOPC   C3A39103   4.539   8.184  13.572
 3320DOPC   C4A39104   4.779   8.214  13.242
 3320DOPC   C1B39105   5.039   7.594  14.392
 3320DOPC   D2B39106   5.229   7.574  13.982
 3320DOPC   C3B39107   5.459   7.394  13.712
 3320DOPC   C4B39108   5.659   7.244  13.192
 3321DOPC   NC339109  14.629  20.674  11.202
 3321DOPC   PO439110  14.839  20.624  11.592
 3321DOPC   GL139111  14.819  20.494  12.062
 3321DOPC   GL239112  14.449  20.374  11.972
 3321DOPC   C1A39113  14.659  20.584  12.482
 3321DOPC   D2A39114  14.489  20.524  12.832
 3321DOPC   C3A39115  14.229  20.334  12.862
 3321DOPC   C4A39116  14.129  20.034  13.232
 3321DOPC   C1B39117  14.489  20.094  12.422
 3321DOPC   D2B39118  14.539  19.924  12.862
 3321DOPC   C3B39119  14.639  20.144  13.232
 3321DOPC   C4B39120  14.809  20.404  13.562
 3322DOPC   NC339121  13.589   2.344  14.472
 3322DOPC   PO439122  13.149   2.204  14.582
 3322DOPC   GL139123  13.289   2.024  14.152
 3322DOPC   GL239124  13.109   1.784  14.062
 3322DOPC   C1A39125  13.399   1.964  13.722
 3322DOPC   D2A39126  13.179   1.914  13.402
 3322DOPC   C3A39127  13.019   2.194  13.142
 3322DOPC   C4A39128  12.849   2.344  12.832
 3322DOPC   C1B39129  12.849   1.654  13.692
 3322DOPC   D2B39130  12.699   1.474  13.362
 3322DOPC   C3B39131  12.759   0.994  13.382
 3322DOPC   C4B39132  12.649   0.724  13.132
 3323DOPC   NC339133   0.399   6.424  11.632
 3323DOPC   PO439134   0.849   6.344  11.462
 3323DOPC   GL139135   0.979   6.234  11.972
 3323DOPC   GL239136   0.649   6.364  12.052
 3323DOPC   C1A39137   1.259   6.424  12.332
 3323DOPC   D2A39138   1.329   6.734  12.582
 3323DOPC   C3A39139   1.199   6.934  12.962
 3323DOPC   C4A39140   1.209   6.964  13.352
 3323DOPC   C1B39141   0.219   6.404  12.322
 3323DOPC   D2B39142   0.259   6.824  12.592
 3323DOPC   C3B39143   0.129   6.884  12.992
 3323DOPC   C4B39144   0.041   6.784  13.502
 3324DOPC   NC339145  23.869   1.124  12.172
 3324DOPC   PO439146  24.239   1.344  11.902
 3324DOPC   GL139147  24.419   1.524  12.232
 3324DOPC   GL239148  24.049   1.524  12.352
 3324DOPC   C1A39149  24.399   1.714  12.632
 3324DOPC   D2A39150  24.709   1.894  12.922
 3324DOPC   C3A39151  24.749   1.774  13.302
 3324DOPC   C4A39152  24.639   1.954  13.672
 3324DOPC   C1B39153  23.839   1.794  12.722
 3324DOPC   D2B39154  23.629   2.174  12.922
 3324DOPC   C3B39155  23.739   2.104  13.332
 3324DOPC   C4B39156  24.089   1.994  13.562
 3325DOPC   NC339157   6.719  22.501  15.402
 3325DOPC   PO439158   6.419  22.521  14.992
 3325DOPC   GL139159   6.349  22.791  14.692
 3325DOPC   GL239160   6.179  23.081  14.722
 3325DOPC   C1A39161   6.249  22.771  14.312
 3325DOPC   D2A39162   6.099  23.011  13.922
 3325DOPC   C3A39163   6.259  23.211  13.522
 3325DOPC   C4A39164   6.259  23.501  13.212
 3325DOPC   C1B39165   6.219  23.381  14.382
 3325DOPC   D2B39166   6.379  23.471  14.062
 3325DOPC   C3B39167   6.589  23.821  13.992
 3325DOPC   C4B39168   6.909  23.911  13.812
 3326DOPC   NC339169  24.689  21.491  11.952
 3326DOPC   PO439170  24.489  21.631  12.202
 3326DOPC   GL139171  24.459  21.741  12.602
 3326DOPC   GL239172  24.399  21.981  12.682
 3326DOPC   C1A39173  24.409  21.581  13.082
 3326DOPC   D2A39174  24.469  21.661  13.532
 3326DOPC   C3A39175  24.519  21.314  13.882
 3326DOPC   C4A39176  24.649  20.914  14.032
 3326DOPC   C1B39177  24.609  22.121  13.092
 3326DOPC   D2B39178  24.779  22.051  13.502
 3326DOPC   C3B39179  25.099  22.231  13.752
 3326DOPC   C4B39180  25.319  22.191  14.062
 3327DOPC   NC339181  18.429  21.601  11.862
 3327DOPC   PO439182  18.419  21.204  11.922
 3327DOPC   GL139183  18.169  21.361  12.222
 3327DOPC   GL239184  18.159  21.144  12.472
 3327DOPC   C1A39185  17.969  21.601  12.592
 3327DOPC   D2A39186  17.849  21.541  13.012
 3327DOPC   C3A39187  17.699  21.841  13.292
 3327DOPC   C4A39188  17.489  22.031  13.472
 3327DOPC   C1B39189  18.239  21.204  12.892
 3327DOPC   D2B39190  18.369  21.204  13.192
 3327DOPC   C3B39191  18.099  21.471  13.472
 3327DOPC   C4B39192  17.819  21.601  13.752
 3328DOPC   NC339193   4.019  23.011  15.862
 3328DOPC   PO439194   3.749  23.381  15.772
 3328DOPC   GL139195   3.479  23.321  15.322
 3328DOPC   GL239196   3.709  23.421  15.102
 3328DOPC   C1A39197   3.279  23.281  14.872
 3328DOPC   D2A39198   2.999  23.371  14.492
 3328DOPC   C3A39199   3.099  23.351  14.122
 3328DOPC   C4A39200   3.069  23.731  13.872
 3328DOPC   C1B39201   3.729  23.701  14.712
 3328DOPC   D2B39202   4.059  23.931  14.372
 3328DOPC   C3B39203   4.139  23.701  14.002
 3328DOPC   C4B39204   4.469  23.431  13.772
 3329DOPC   NC339205  22.989  21.741  12.002
 3329DOPC   PO439206  23.139  21.401  11.892
 3329DOPC   GL139207  23.159  21.441  12.382
 3329DOPC   GL239208  23.259  21.124  12.662
 3329DOPC   C1A39209  22.849  21.511  12.702
 3329DOPC   D2A39210  22.979  21.611  13.122
 3329DOPC   C3A39211  22.619  21.571  13.432
 3329DOPC   C4A39212  22.259  21.451  13.592
 3329DOPC   C1B39213  23.679  21.064  12.792
 3329DOPC   D2B39214  23.789  20.894  13.142
 3329DOPC   C3B39215  23.739  21.004  13.662
 3329DOPC   C4B39216  23.489  21.451  13.862
 3330DOPC   NC339217  22.299  19.204  16.432
 3330DOPC   PO439218  22.669  19.104  16.122
 3330DOPC   GL139219  22.729  19.114  15.702
 3330DOPC   GL239220  22.619  18.824  15.552
 3330DOPC   C1A39221  22.879  19.304  15.242
 3330DOPC   D2A39222  22.959  19.324  14.922
 3330DOPC   C3A39223  22.639  19.454  14.652
 3330DOPC   C4A39224  22.529  19.504  14.262
 3330DOPC   C1B39225  22.329  18.644  15.232
 3330DOPC   D2B39226  22.149  18.584  14.692
 3330DOPC   C3B39227  22.379  18.694  14.282
 3330DOPC   C4B39228  22.739  18.634  14.202
 3331DOPC   NC339229   1.319   3.704  11.562
 3331DOPC   PO439230   1.419   4.284  11.612
 3331DOPC   GL139231   1.449   4.024  12.052
 3331DOPC   GL239232   1.349   3.734  12.082
 3331DOPC   C1A39233   1.439   3.994  12.472
 3331DOPC   D2A39234   1.249   3.814  12.742
 3331DOPC   C3A39235   0.939   4.044  12.972
 3331DOPC   C4A39236   0.779   3.994  13.352
 3331DOPC   C1B39237   1.049   3.414  12.282
 3331DOPC   D2B39238   0.809   3.474  12.552
 3331DOPC   C3B39239   0.519   3.704  12.692
 3331DOPC   C4B39240   0.209   3.744  12.982
 3332DOPC   NC339241  12.679  23.341  11.592
 3332DOPC   PO439242  12.969  23.741  11.582
 3332DOPC   GL139243  12.869  23.581  12.012
 3332DOPC   GL239244  12.619  23.861  12.112
 3332DOPC   C1A39245  13.099  23.451  12.422
 3332DOPC   D2A39246  13.079  23.441  12.862
 3332DOPC   C3A39247  12.869  23.071  13.072
 3332DOPC   C4A39248  12.949  22.671  13.012
 3332DOPC   C1B39249  12.469  23.601  12.432
 3332DOPC   D2B39250  12.469  23.651  12.872
 3332DOPC   C3B39251  12.589  23.471  13.262
 3332DOPC   C4B39252  12.889  23.391  13.472
 3333DOPC   NC339253   4.489   3.444  10.802
 3333DOPC   PO439254   4.599   3.224  11.232
 3333DOPC   GL139255   4.749   3.244  11.632
 3333DOPC   GL239256   5.159   3.204  11.732
 3333DOPC   C1A39257   4.619   3.234  12.022
 3333DOPC   D2A39258   4.439   3.304  12.342
 3333DOPC   C3A39259   4.329   3.274  12.812
 3333DOPC   C4A39260   4.139   3.364  13.272
 3333DOPC   C1B39261   5.019   3.064  12.262
 3333DOPC   D2B39262   5.019   3.134  12.672
 3333DOPC   C3B39263   5.279   3.004  12.942
 3333DOPC   C4B39264   5.699   3.134  13.172
 3334DOPC   NC339265  21.479   6.014  15.082
 3334DOPC   PO439266  21.179   6.314  15.412
 3334DOPC   GL139267  21.019   6.254  14.992
 3334DOPC   GL239268  20.959   5.944  14.952
 3334DOPC   C1A39269  20.999   6.494  14.572
 3334DOPC   D2A39270  21.149   6.634  14.252
 3334DOPC   C3A39271  20.889   6.914  14.052
 3334DOPC   C4A39272  20.779   7.184  13.772
 3334DOPC   C1B39273  20.599   6.184  14.592
 3334DOPC   D2B39274  20.389   6.074  14.192
 3334DOPC   C3B39275  20.649   5.884  13.832
 3334DOPC   C4B39276  20.699   5.494  13.502
 3335DOPC   NC339277  16.559  12.844  10.632
 3335DOPC   PO439278  16.119  13.084  10.582
 3335DOPC   GL139279  16.039  13.044  10.992
 3335DOPC   GL239280  15.879  13.334  11.122
 3335DOPC   C1A39281  16.129  12.914  11.502
 3335DOPC   D2A39282  16.099  13.004  11.902
 3335DOPC   C3A39283  16.439  12.774  12.042
 3335DOPC   C4A39284  16.699  12.444  12.242
 3335DOPC   C1B39285  15.899  13.474  11.602
 3335DOPC   D2B39286  16.119  13.564  11.942
 3335DOPC   C3B39287  15.839  13.534  12.302
 3335DOPC   C4B39288  15.649  13.654  12.682
 3336DOPC   NC339289   4.509  12.114  10.712
 3336DOPC   PO439290   4.389  12.374  11.002
 3336DOPC   GL139291   4.509  12.394  11.422
 3336DOPC   GL239292   4.399  12.734  11.542
 3336DOPC   C1A39293   4.889  12.474  11.642
 3336DOPC   D2A39294   4.929  12.794  11.972
 3336DOPC   C3A39295   4.709  12.654  12.292
 3336DOPC   C4A39296   4.449  12.354  12.402
 3336DOPC   C1B39297   4.329  12.554  11.912
 3336DOPC   D2B39298   3.969  12.504  12.282
 3336DOPC   C3B39299   3.799  12.724  12.562
 3336DOPC   C4B39300   3.669  13.034  12.862
 3337DOPC   NC339301   2.929  15.764  11.642
 3337DOPC   PO439302   3.009  16.164  11.922
 3337DOPC   GL139303   3.319  16.274  12.252
 3337DOPC   GL239304   3.079  16.304  12.422
 3337DOPC   C1A39305   3.379  16.004  12.672
 3337DOPC   D2A39306   3.829  15.764  12.732
 3337DOPC   C3A39307   4.159  15.994  12.542
 3337DOPC   C4A39308   4.349  16.384  12.502
 3337DOPC   C1B39309   2.889  16.304  12.772
 3337DOPC   D2B39310   2.869  16.364  13.162
 3337DOPC   C3B39311   3.279  16.104  13.272
 3337DOPC   C4B39312   3.409  15.874  13.552
 3338DOPC   NC339313   3.959   3.924  11.482
 3338DOPC   PO439314   3.819   3.534  11.572
 3338DOPC   GL139315   3.469   3.594  11.832
 3338DOPC   GL239316   3.589   3.944  11.872
 3338DOPC   C1A39317   3.329   3.734  12.232
 3338DOPC   D2A39318   3.589   3.744  12.662
 3338DOPC   C3A39319   3.639   4.084  12.932
 3338DOPC   C4A39320   3.269   4.384  13.042
 3338DOPC   C1B39321   3.849   4.184  12.082
 3338DOPC   D2B39322   3.909   4.154  12.502
 3338DOPC   C3B39323   4.449   4.174  12.702
 3338DOPC   C4B39324   4.619   4.174  13.062
 3339DOPC   NC339325   7.939   0.734  15.662
 3339DOPC   PO439326   7.449   0.834  15.472
 3339DOPC   GL139327   7.259   0.744  15.032
 3339DOPC   GL239328   7.129   0.404  14.822
 3339DOPC   C1A39329   7.179   0.954  14.682
 3339DOPC   D2A39330   7.299   0.924  14.262
 3339DOPC   C3A39331   7.639   0.964  14.102
 3339DOPC   C4A39332   8.149   0.784  14.022
 3339DOPC   C1B39333   7.279   0.404  14.432
 3339DOPC   D2B39334   7.429   0.364  14.062
 3339DOPC   C3B39335   7.699   0.554  13.802
 3339DOPC   C4B39336   7.819   0.454  13.322
 3340DOPC   NC339337  23.379  17.974  12.522
 3340DOPC   PO439338  23.539  18.304  12.442
 3340DOPC   GL139339  23.309  18.364  12.812
 3340DOPC   GL239340  23.569  18.584  13.012
 3340DOPC   C1A39341  23.159  18.264  13.282
 3340DOPC   D2A39342  22.849  18.294  13.672
 3340DOPC   C3A39343  22.919  18.104  14.092
 3340DOPC   C4A39344  22.839  17.834  14.322
 3340DOPC   C1B39345  23.699  18.494  13.472
 3340DOPC   D2B39346  23.919  18.514  13.892
 3340DOPC   C3B39347  23.719  18.664  14.252
 3340DOPC   C4B39348  23.579  18.534  14.682
 3341DOPC   NC339349  23.729   5.844  15.462
 3341DOPC   PO439350  23.429   5.504  15.612
 3341DOPC   GL139351  23.549   5.474  15.202
 3341DOPC   GL239352  23.329   5.634  15.032
 3341DOPC   C1A39353  23.759   5.504  14.782
 3341DOPC   D2A39354  23.919   5.554  14.322
 3341DOPC   C3A39355  23.599   5.654  14.032
 3341DOPC   C4A39356  23.389   6.014  13.812
 3341DOPC   C1B39357  23.519   5.934  14.742
 3341DOPC   D2B39358  23.379   6.004  14.292
 3341DOPC   C3B39359  23.379   6.424  14.092
 3341DOPC   C4B39360  23.359   6.774  13.912
 3342DOPC   NC339361   9.569   4.334  10.692
 3342DOPC   PO439362   9.859   4.764  10.712
 3342DOPC   GL139363   9.949   4.584  11.122
 3342DOPC   GL239364   9.829   4.284  11.222
 3342DOPC   C1A39365   9.819   4.724  11.562
 3342DOPC   D2A39366   9.809   4.634  12.032
 3342DOPC   C3A39367  10.209   4.654  12.302
 3342DOPC   C4A39368  10.539   4.604  12.652
 3342DOPC   C1B39369   9.679   3.914  11.252
 3342DOPC   D2B39370   9.699   3.714  11.662
 3342DOPC   C3B39371   9.999   3.664  11.882
 3342DOPC   C4B39372  10.059   3.744  12.262
 3343DOPC   NC339373  24.919  24.911  11.842
 3343DOPC   PO439374  24.969  25.281  11.912
 3343DOPC   GL139375  24.839  25.481  12.352
 3343DOPC   GL239376  24.919  25.841  12.382
 3343DOPC   C1A39377  24.839  25.371  12.752
 3343DOPC   D2A39378  24.879  25.391  13.202
 3343DOPC   C3A39379  24.669  25.361  13.512
 3343DOPC   C4A39380  24.389  25.191  13.752
 3343DOPC   C1B39381  25.179  25.791  12.732
 3343DOPC   D2B39382  25.209  25.861  13.162
 3343DOPC   C3B39383  24.949  25.791  13.532
 3343DOPC   C4B39384  24.739  25.781  13.852
 3344DOPC   NC339385   7.129  23.321  11.302
 3344DOPC   PO439386   7.079  23.031  11.672
 3344DOPC   GL139387   7.009  22.901  12.082
 3344DOPC   GL239388   7.359  22.671  12.072
 3344DOPC   C1A39389   6.809  23.251  12.372
 3344DOPC   D2A39390   6.629  23.611  12.552
 3344DOPC   C3A39391   6.239  23.661  12.752
 3344DOPC   C4A39392   5.859  23.571  12.752
 3344DOPC   C1B39393   7.739  22.601  12.162
 3344DOPC   D2B39394   7.699  22.311  12.502
 3344DOPC   C3B39395   7.999  22.301  12.872
 3344DOPC   C4B39396   8.339  22.271  13.222
 3345DOPC   NC339397   7.729  22.501  15.052
 3345DOPC   PO439398   7.549  22.101  15.142
 3345DOPC   GL139399   7.319  21.841  14.862
 3345DOPC   GL239400   7.429  21.611  14.802
 3345DOPC   C1A39401   6.989  21.931  14.642
 3345DOPC   D2A39402   6.669  22.111  14.402
 3345DOPC   C3A39403   6.589  21.971  13.962
 3345DOPC   C4A39404   6.249  22.011  13.792
 3345DOPC   C1B39405   7.549  21.471  14.352
 3345DOPC   D2B39406   7.539  21.541  13.942
 3345DOPC   C3B39407   7.409  21.931  13.812
 3345DOPC   C4B39408   7.279  22.061  13.402
 3346DOPC   NC339409  15.489   5.424  10.872
 3346DOPC   PO439410  15.629   5.094  11.122
 3346DOPC   GL139411  15.529   5.314  11.452
 3346DOPC   GL239412  15.609   5.514  11.702
 3346DOPC   C1A39413  15.499   4.994  11.862
 3346DOPC   D2A39414  15.549   4.624  12.082
 3346DOPC   C3A39415  15.429   4.174  11.822
 3346DOPC   C4A39416  15.289   3.724  11.882
 3346DOPC   C1B39417  15.749   5.404  12.062
 3346DOPC   D2B39418  15.759   5.134  12.262
 3346DOPC   C3B39419  15.439   5.064  12.432
 3346DOPC   C4B39420  15.159   5.434  12.632
 3347DOPC   NC339421  12.419   4.994  10.872
 3347DOPC   PO439422  12.429   5.394  10.722
 3347DOPC   GL139423  12.219   5.334  11.162
 3347DOPC   GL239424  12.089   4.974  11.322
 3347DOPC   C1A39425  12.229   5.554  11.582
 3347DOPC   D2A39426  12.389   5.614  11.992
 3347DOPC   C3A39427  12.369   5.984  12.232
 3347DOPC   C4A39428  12.089   6.024  12.502
 3347DOPC   C1B39429  11.849   4.904  11.702
 3347DOPC   D2B39430  11.479   4.784  11.932
 3347DOPC   C3B39431  11.399   4.994  12.312
 3347DOPC   C4B39432  11.069   5.194  12.672
 3348DOPC   NC339433  18.309   6.674  15.082
 3348DOPC   PO439434  17.879   6.684  14.882
 3348DOPC   GL139435  18.129   6.594  14.452
 3348DOPC   GL239436  18.469   6.574  14.612
 3348DOPC   C1A39437  18.099   6.624  14.062
 3348DOPC   D2A39438  18.259   6.574  13.612
 3348DOPC   C3A39439  18.169   6.754  13.132
 3348DOPC   C4A39440  17.969   7.064  12.902
 3348DOPC   C1B39441  18.639   6.634  14.172
 3348DOPC   D2B39442  18.869   6.574  13.762
 3348DOPC   C3B39443  18.619   6.224  13.642
 3348DOPC   C4B39444  18.549   5.874  13.512
 3349DOPC   NC339445  15.189   6.274  10.672
 3349DOPC   PO439446  15.109   5.844  10.892
 3349DOPC   GL139447  14.939   6.004  11.282
 3349DOPC   GL239448  14.709   6.274  11.282
 3349DOPC   C1A39449  14.899   5.864  11.642
 3349DOPC   D2A39450  14.959   5.824  12.092
 3349DOPC   C3A39451  15.279   5.864  12.352
 3349DOPC   C4A39452  15.639   5.674  12.522
 3349DOPC   C1B39453  14.399   6.094  11.512
 3349DOPC   D2B39454  14.539   5.984  11.952
 3349DOPC   C3B39455  14.299   6.054  12.242
 3349DOPC   C4B39456  14.009   6.064  12.582
 3350DOPC   NC339457  13.099   2.644  14.312
 3350DOPC   PO439458  13.499   2.834  14.442
 3350DOPC   GL139459  13.429   2.734  13.932
 3350DOPC   GL239460  13.609   2.494  13.912
 3350DOPC   C1A39461  13.399   2.894  13.562
 3350DOPC   D2A39462  13.539   2.894  13.052
 3350DOPC   C3A39463  13.569   2.614  12.722
 3350DOPC   C4A39464  13.319   2.264  12.652
 3350DOPC   C1B39465  13.859   2.234  13.682
 3350DOPC   D2B39466  14.159   2.284  13.382
 3350DOPC   C3B39467  14.319   2.304  12.932
 3350DOPC   C4B39468  14.479   2.634  12.932
 3351DOPC   NC339469  10.389  21.204  15.182
 3351DOPC   PO439470  10.689  20.884  15.022
 3351DOPC   GL139471  10.639  21.044  14.672
 3351DOPC   GL239472  10.279  20.874  14.502
 3351DOPC   C1A39473  10.719  21.264  14.322
 3351DOPC   D2A39474  10.649  21.324  13.882
 3351DOPC   C3A39475  10.779  21.591  13.592
 3351DOPC   C4A39476  10.499  21.611  13.242
 3351DOPC   C1B39477  10.619  20.804  14.152
 3351DOPC   D2B39478  10.579  20.844  13.682
 3351DOPC   C3B39479  10.059  20.714  13.522
 3351DOPC   C4B39480   9.649  20.434  13.602
 3352DOPC   NC339481  20.919  14.384  11.992
 3352DOPC   PO439482  21.119  14.844  11.852
 3352DOPC   GL139483  21.089  14.884  12.282
 3352DOPC   GL239484  21.069  14.614  12.382
 3352DOPC   C1A39485  21.099  15.044  12.772
 3352DOPC   D2A39486  21.109  15.234  13.182
 3352DOPC   C3A39487  21.039  14.974  13.622
 3352DOPC   C4A39488  20.979  15.054  14.052
 3352DOPC   C1B39489  21.469  14.344  12.612
 3352DOPC   D2B39490  21.879  14.344  12.792
 3352DOPC   C3B39491  21.999  14.084  13.062
 3352DOPC   C4B39492  21.849  13.954  13.522
 3353DOPC   NC339493   5.879   3.324  14.782
 3353DOPC   PO439494   5.999   2.874  14.752
 3353DOPC   GL139495   6.209   3.104  14.322
 3353DOPC   GL239496   6.309   3.494  14.532
 3353DOPC   C1A39497   6.099   3.154  13.892
 3353DOPC   D2A39498   5.909   3.354  13.612
 3353DOPC   C3A39499   6.059   3.764  13.612
 3353DOPC   C4A39500   6.429   3.814  13.362
 3353DOPC   C1B39501   6.209   3.584  14.082
 3353DOPC   D2B39502   6.459   3.484  13.752
 3353DOPC   C3B39503   6.349   3.154  13.462
 3353DOPC   C4B39504   6.189   3.294  13.062
 3354DOPC   NC339505   9.009  22.681  15.062
 3354DOPC   PO439506   9.189  22.341  15.362
 3354DOPC   GL139507   9.139  22.161  15.002
 3354DOPC   GL239508   9.259  22.371  14.672
 3354DOPC   C1A39509   8.829  22.111  14.502
 3354DOPC   D2A39510   8.429  21.901  14.312
 3354DOPC   C3A39511   8.349  21.601  13.972
 3354DOPC   C4A39512   8.389  21.254  13.772
 3354DOPC   C1B39513   9.489  22.361  14.242
 3354DOPC   D2B39514   9.849  22.571  14.022
 3354DOPC   C3B39515   9.819  22.521  13.662
 3354DOPC   C4B39516  10.169  22.461  13.492
 3355DOPC   NC339517  12.299   7.804  10.612
 3355DOPC   PO439518  12.379   8.184  10.852
 3355DOPC   GL139519  12.589   8.434  11.162
 3355DOPC   GL239520  12.469   8.764  11.232
 3355DOPC   C1A39521  12.899   8.624  11.462
 3355DOPC   D2A39522  13.299   8.634  11.552
 3355DOPC   C3A39523  13.379   8.884  11.892
 3355DOPC   C4A39524  13.219   9.014  12.252
 3355DOPC   C1B39525  12.169   8.454  11.482
 3355DOPC   D2B39526  11.779   8.334  11.522
 3355DOPC   C3B39527  11.639   8.284  11.932
 3355DOPC   C4B39528  11.669   8.454  12.362
 3356DOPC   NC339529  18.989  15.564  12.022
 3356DOPC   PO439530  19.239  15.944  12.082
 3356DOPC   GL139531  19.169  16.204  12.422
 3356DOPC   GL239532  18.799  16.064  12.292
 3356DOPC   C1A39533  19.409  16.454  12.762
 3356DOPC   D2A39534  19.679  16.804  12.712
 3356DOPC   C3A39535  19.779  17.084  13.092
 3356DOPC   C4A39536  19.529  17.484  13.222
 3356DOPC   C1B39537  18.479  15.814  12.452
 3356DOPC   D2B39538  18.079  15.814  12.732
 3356DOPC   C3B39539  17.949  15.694  13.182
 3356DOPC   C4B39540  17.909  15.984  13.472
 3357DOPC   NC339541   9.749  14.784  10.762
 3357DOPC   PO439542   9.379  14.634  10.972
 3357DOPC   GL139543   9.239  14.334  11.232
 3357DOPC   GL239544   9.519  14.134  11.332
 3357DOPC   C1A39545   9.369  14.394  11.682
 3357DOPC   D2A39546   9.519  14.194  12.022
 3357DOPC   C3A39547   9.369  14.244  12.502
 3357DOPC   C4A39548   9.409  14.264  12.882
 3357DOPC   C1B39549   9.389  13.894  11.642
 3357DOPC   D2B39550   9.219  13.524  11.922
 3357DOPC   C3B39551   9.449  13.294  12.122
 3357DOPC   C4B39552   9.849  13.304  12.342
 3358DOPC   NC339553  10.729   0.984  10.992
 3358DOPC   PO439554  10.549   0.544  11.012
 3358DOPC   GL139555  10.389   0.834  11.352
 3358DOPC   GL239556  10.129   1.004  11.392
 3358DOPC   C1A39557  10.319   1.044  11.792
 3358DOPC   D2A39558  10.379   1.004  12.192
 3358DOPC   C3A39559  10.549   1.334  12.302
 3358DOPC   C4A39560  10.339   1.754  12.542
 3358DOPC   C1B39561   9.769   0.844  11.632
 3358DOPC   D2B39562   9.439   0.804  11.802
 3358DOPC   C3B39563   9.489   0.834  12.182
 3358DOPC   C4B39564   9.909   1.104  12.092
 3359DOPC   NC339565   2.779   7.544  11.322
 3359DOPC   PO439566   2.749   7.164  11.522
 3359DOPC   GL139567   2.729   7.374  11.932
 3359DOPC   GL239568   2.659   7.064  12.052
 3359DOPC   C1A39569   2.749   7.754  12.262
 3359DOPC   D2A39570   2.789   7.994  12.672
 3359DOPC   C3A39571   2.959   8.384  12.782
 3359DOPC   C4A39572   3.069   8.784  12.592
 3359DOPC   C1B39573   2.779   7.204  12.502
 3359DOPC   D2B39574   3.079   7.494  12.682
 3359DOPC   C3B39575   3.339   7.424  13.122
 3359DOPC   C4B39576   3.619   7.674  13.432
 3360DOPC   NC339577   1.529   5.274  11.472
 3360DOPC   PO439578   1.559   5.724  11.412
 3360DOPC   GL139579   1.379   5.914  11.792
 3360DOPC   GL239580   1.489   6.294  11.862
 3360DOPC   C1A39581   1.149   5.854  12.192
 3360DOPC   D2A39582   0.949   5.974  12.472
 3360DOPC   C3A39583   0.639   5.894  12.722
 3360DOPC   C4A39584   0.309   6.194  12.742
 3360DOPC   C1B39585   1.659   6.074  12.202
 3360DOPC   D2B39586   1.469   5.924  12.602
 3360DOPC   C3B39587   1.179   6.244  12.882
 3360DOPC   C4B39588   1.099   6.444  13.272
 3361DOPC   NC339589  14.409   3.694  14.412
 3361DOPC   PO439590  14.269   3.244  14.592
 3361DOPC   GL139591  14.359   3.184  14.232
 3361DOPC   GL239592  14.629   3.364  14.002
 3361DOPC   C1A39593  14.589   2.854  14.172
 3361DOPC   D2A39594  14.549   2.394  14.162
 3361DOPC   C3A39595  14.739   1.984  14.232
 3361DOPC   C4A39596  14.599   1.764  14.662
 3361DOPC   C1B39597  14.659   3.474  13.512
 3361DOPC   D2B39598  14.739   3.564  13.132
 3361DOPC   C3B39599  14.999   3.224  12.912
 3361DOPC   C4B39600  14.949   2.824  12.652
 3362DOPC   NC339601  -0.019  23.381  12.092
 3362DOPC   PO439602  -0.289  23.541  12.422
 3362DOPC   GL139603   0.089  23.491  12.692
 3362DOPC   GL239604   0.319  23.731  12.562
 3362DOPC   C1A39605   0.329  23.461  13.002
 3362DOPC   D2A39606   0.629  23.681  13.452
 3362DOPC   C3A39607   0.399  24.041  13.572
 3362DOPC   C4A39608   0.589  24.301  13.892
 3362DOPC   C1B39609   0.129  23.931  12.912
 3362DOPC   D2B39610  -0.079  23.741  13.252
 3362DOPC   C3B39611  -0.429  23.481  13.382
 3362DOPC   C4B39612  -0.729  23.251  13.602
 3363DOPC   NC339613  21.689  20.094  15.662
 3363DOPC   PO439614  21.809  20.474  15.762
 3363DOPC   GL139615  21.799  20.274  15.192
 3363DOPC   GL239616  22.099  20.004  15.072
 3363DOPC   C1A39617  21.729  19.954  14.642
 3363DOPC   D2A39618  21.639  19.744  14.202
 3363DOPC   C3A39619  21.799  19.934  13.892
 3363DOPC   C4A39620  21.919  19.874  13.552
 3363DOPC   C1B39621  22.329  20.114  14.742
 3363DOPC   D2B39622  22.299  20.304  14.272
 3363DOPC   C3B39623  21.859  20.304  14.222
 3363DOPC   C4B39624  21.449  20.254  14.322
 3364DOPC   NC339625   4.799   5.924  11.012
 3364DOPC   PO439626   4.559   5.944  11.372
 3364DOPC   GL139627   4.479   5.864  11.802
 3364DOPC   GL239628   4.759   5.924  11.802
 3364DOPC   C1A39629   4.279   5.744  12.122
 3364DOPC   D2A39630   4.409   5.764  12.502
 3364DOPC   C3A39631   4.619   5.464  12.712
 3364DOPC   C4A39632   4.819   5.194  13.012
 3364DOPC   C1B39633   5.089   6.114  12.122
 3364DOPC   D2B39634   5.149   6.404  12.452
 3364DOPC   C3B39635   5.589   6.394  12.722
 3364DOPC   C4B39636   6.019   6.414  12.772
 3365DOPC   NC339637  20.299  22.301  12.242
 3365DOPC   PO439638  20.599  22.451  12.142
 3365DOPC   GL139639  20.579  22.461  12.582
 3365DOPC   GL239640  20.739  22.191  12.612
 3365DOPC   C1A39641  20.499  22.751  12.972
 3365DOPC   D2A39642  20.479  23.101  13.352
 3365DOPC   C3A39643  20.029  23.151  13.542
 3365DOPC   C4A39644  19.909  23.461  13.692
 3365DOPC   C1B39645  20.509  22.271  13.042
 3365DOPC   D2B39646  20.469  22.501  13.452
 3365DOPC   C3B39647  20.189  22.241  13.722
 3365DOPC   C4B39648  20.099  22.451  14.022
 3366DOPC   NC339649   4.419   3.074  15.092
 3366DOPC   PO439650   4.689   2.864  15.382
 3366DOPC   GL139651   4.779   2.694  15.002
 3366DOPC   GL239652   4.819   2.954  14.742
 3366DOPC   C1A39653   4.979   2.484  14.632
 3366DOPC   D2A39654   5.129   2.254  14.192
 3366DOPC   C3A39655   5.029   2.264  13.772
 3366DOPC   C4A39656   5.009   2.314  13.292
 3366DOPC   C1B39657   5.009   3.164  14.462
 3366DOPC   D2B39658   5.069   3.034  13.912
 3366DOPC   C3B39659   4.589   3.124  13.682
 3366DOPC   C4B39660   4.379   2.924  13.312
 3367DOPC   NC339661  13.979   1.454  11.272
 3367DOPC   PO439662  13.949   1.834  10.882
 3367DOPC   GL139663  13.889   1.964  11.372
 3367DOPC   GL239664  13.649   2.124  11.342
 3367DOPC   C1A39665  13.859   1.964  11.872
 3367DOPC   D2A39666  13.549   1.834  12.212
 3367DOPC   C3A39667  13.199   1.824  12.602
 3367DOPC   C4A39668  12.909   1.724  12.982
 3367DOPC   C1B39669  13.449   1.774  11.632
 3367DOPC   D2B39670  13.669   1.414  11.802
 3367DOPC   C3B39671  13.479   1.264  12.182
 3367DOPC   C4B39672  13.569   1.484  12.572
 3368DOPC   NC339673  12.419   0.844  10.452
 3368DOPC   PO439674  12.239   1.054  10.842
 3368DOPC   GL139675  12.169   1.054  11.302
 3368DOPC   GL239676  12.379   0.854  11.452
 3368DOPC   C1A39677  12.149   1.144  11.762
 3368DOPC   D2A39678  11.829   1.184  12.122
 3368DOPC   C3A39679  11.709   1.354  12.492
 3368DOPC   C4A39680  11.489   1.564  12.802
 3368DOPC   C1B39681  12.599   0.754  11.772
 3368DOPC   D2B39682  12.729   0.684  12.232
 3368DOPC   C3B39683  12.529   0.864  12.582
 3368DOPC   C4B39684  12.509   1.164  12.922
 3369DOPC   NC339685  16.169  24.941  15.752
 3369DOPC   PO439686  16.019  24.461  15.662
 3369DOPC   GL139687  16.249  24.301  15.322
 3369DOPC   GL239688  16.379  24.561  15.332
 3369DOPC   C1A39689  16.309  24.081  15.042
 3369DOPC   D2A39690  16.539  23.811  14.712
 3369DOPC   C3A39691  16.459  23.391  14.652
 3369DOPC   C4A39692  16.449  23.011  14.462
 3369DOPC   C1B39693  16.239  24.691  14.842
 3369DOPC   D2B39694  16.029  24.761  14.382
 3369DOPC   C3B39695  16.179  24.681  14.022
 3369DOPC   C4B39696  16.359  24.701  13.732
 3370DOPC   NC339697  12.709   7.434  14.212
 3370DOPC   PO439698  12.259   7.314  14.332
 3370DOPC   GL139699  12.309   7.274  13.902
 3370DOPC   GL239700  12.149   6.994  13.752
 3370DOPC   C1A39701  12.559   7.274  13.572
 3370DOPC   D2A39702  13.029   7.294  13.672
 3370DOPC   C3A39703  13.409   7.474  13.472
 3370DOPC   C4A39704  13.789   7.054  13.412
 3370DOPC   C1B39705  12.369   6.804  13.402
 3370DOPC   D2B39706  12.559   6.844  13.022
 3370DOPC   C3B39707  12.999   6.734  12.932
 3370DOPC   C4B39708  13.019   6.394  12.662
 3371DOPC   NC339709  18.459   9.324  10.922
 3371DOPC   PO439710  18.569   8.854  11.052
 3371DOPC   GL139711  18.309   8.834  11.402
 3371DOPC   GL239712  18.499   8.974  11.642
 3371DOPC   C1A39713  17.949   8.944  11.542
 3371DOPC   D2A39714  17.759   9.304  11.722
 3371DOPC   C3A39715  17.759   9.594  12.032
 3371DOPC   C4A39716  17.809   9.824  12.422
 3371DOPC   C1B39717  18.629   8.674  11.822
 3371DOPC   D2B39718  18.629   8.674  12.252
 3371DOPC   C3B39719  18.509   8.384  12.422
 3371DOPC   C4B39720  18.289   7.964  12.422
 3372DOPC   NC339721   1.169  15.704  11.852
 3372DOPC   PO439722   0.779  15.884  11.972
 3372DOPC   GL139723   0.979  16.104  12.262
 3372DOPC   GL239724   1.109  15.844  12.362
 3372DOPC   C1A39725   0.939  16.174  12.742
 3372DOPC   D2A39726   1.039  16.504  13.202
 3372DOPC   C3A39727   1.029  16.324  13.562
 3372DOPC   C4A39728   1.209  16.004  13.792
 3372DOPC   C1B39729   1.459  15.684  12.662
 3372DOPC   D2B39730   1.519  15.744  13.072
 3372DOPC   C3B39731   1.159  15.924  13.252
 3372DOPC   C4B39732   0.719  16.064  13.152
 3373DOPC   NC339733   8.139   1.174  11.362
 3373DOPC   PO439734   8.529   1.254  11.232
 3373DOPC   GL139735   8.909   1.434  11.222
 3373DOPC   GL239736   9.249   1.214  11.342
 3373DOPC   C1A39737   9.109   1.684  11.582
 3373DOPC   D2A39738   9.209   1.984  11.852
 3373DOPC   C3A39739   9.259   1.844  12.302
 3373DOPC   C4A39740   9.049   1.634  12.622
 3373DOPC   C1B39741   9.219   1.234  11.812
 3373DOPC   D2B39742   9.069   1.294  12.212
 3373DOPC   C3B39743   8.689   1.114  12.242
 3373DOPC   C4B39744   8.529   0.654  12.242
 3374DOPC   NC339745  15.469   3.714  15.112
 3374DOPC   PO439746  15.809   4.054  15.012
 3374DOPC   GL139747  16.019   4.244  14.632
 3374DOPC   GL239748  15.979   4.564  14.442
 3374DOPC   C1A39749  16.419   4.184  14.412
 3374DOPC   D2A39750  16.499   4.114  14.012
 3374DOPC   C3A39751  16.719   4.204  13.602
 3374DOPC   C4A39752  16.469   4.214  13.172
 3374DOPC   C1B39753  16.149   4.494  13.972
 3374DOPC   D2B39754  16.249   4.474  13.652
 3374DOPC   C3B39755  16.219   4.634  13.302
 3374DOPC   C4B39756  16.049   4.754  12.912
 3375DOPC   NC339757  11.049  19.354  15.132
 3375DOPC   PO439758  10.799  19.544  14.892
 3375DOPC   GL139759  10.629  19.534  14.502
 3375DOPC   GL239760  10.799  19.144  14.492
 3375DOPC   C1A39761  10.559  19.774  14.162
 3375DOPC   D2A39762  10.869  19.984  13.882
 3375DOPC   C3A39763  11.209  19.754  13.662
 3375DOPC   C4A39764  11.459  19.864  13.282
 3375DOPC   C1B39765  10.659  19.244  14.012
 3375DOPC   D2B39766  10.409  19.154  13.632
 3375DOPC   C3B39767  10.299  18.794  13.432
 3375DOPC   C4B39768  10.079  18.524  13.702
 3376DOPC   NC339769   5.459  21.324  11.362
 3376DOPC   PO439770   5.609  21.324  11.712
 3376DOPC   GL139771   5.789  21.324  12.112
 3376DOPC   GL239772   6.089  21.431  12.202
 3376DOPC   C1A39773   5.679  21.391  12.602
 3376DOPC   D2A39774   5.599  21.154  12.952
 3376DOPC   C3A39775   5.279  21.381  13.162
 3376DOPC   C4A39776   5.109  21.304  13.562
 3376DOPC   C1B39777   6.229  21.204  12.512
 3376DOPC   D2B39778   6.459  20.864  12.642
 3376DOPC   C3B39779   6.469  20.804  13.032
 3376DOPC   C4B39780   6.629  20.734  13.392
 3377DOPC   NC339781  15.559  16.324  15.272
 3377DOPC   PO439782  15.319  16.744  15.412
 3377DOPC   GL139783  15.459  16.854  15.072
 3377DOPC   GL239784  15.669  16.684  14.972
 3377DOPC   C1A39785  15.529  17.024  14.592
 3377DOPC   D2A39786  15.879  17.094  14.242
 3377DOPC   C3A39787  15.819  17.454  14.042
 3377DOPC   C4A39788  16.119  17.634  13.822
 3377DOPC   C1B39789  15.699  16.524  14.612
 3377DOPC   D2B39790  16.049  16.264  14.442
 3377DOPC   C3B39791  15.759  16.094  14.202
 3377DOPC   C4B39792  15.389  15.914  14.172
 3378DOPC   NC339793  12.139  15.534  14.552
 3378DOPC   PO439794  12.619  15.774  14.612
 3378DOPC   GL139795  12.729  15.884  14.142
 3378DOPC   GL239796  12.609  16.134  13.942
 3378DOPC   C1A39797  12.899  15.654  13.842
 3378DOPC   D2A39798  13.299  15.614  13.682
 3378DOPC   C3A39799  13.479  15.284  13.582
 3378DOPC   C4A39800  13.599  15.234  13.132
 3378DOPC   C1B39801  12.439  15.774  13.662
 3378DOPC   D2B39802  12.339  15.744  13.162
 3378DOPC   C3B39803  12.569  15.964  12.762
 3378DOPC   C4B39804  12.679  16.324  12.522
 3379DOPC   NC339805  20.699  20.764  11.762
 3379DOPC   PO439806  21.129  20.704  12.112
 3379DOPC   GL139807  21.029  20.994  12.462
 3379DOPC   GL239808  21.259  20.874  12.632
 3379DOPC   C1A39809  20.759  21.214  12.882
 3379DOPC   D2A39810  20.539  21.371  13.172
 3379DOPC   C3A39811  20.529  21.104  13.542
 3379DOPC   C4A39812  20.269  20.984  13.832
 3379DOPC   C1B39813  21.299  21.164  12.942
 3379DOPC   D2B39814  21.539  21.064  13.382
 3379DOPC   C3B39815  21.329  21.154  13.762
 3379DOPC   C4B39816  21.599  21.164  14.192
 3380DOPC   NC339817   7.109  17.344  15.032
 3380DOPC   PO439818   7.239  16.984  15.052
 3380DOPC   GL139819   7.109  16.974  14.622
 3380DOPC   GL239820   7.259  17.224  14.462
 3380DOPC   C1A39821   7.109  16.674  14.232
 3380DOPC   D2A39822   7.019  16.274  14.062
 3380DOPC   C3A39823   7.149  16.174  13.672
 3380DOPC   C4A39824   7.369  16.204  13.252
 3380DOPC   C1B39825   7.139  17.144  14.012
 3380DOPC   D2B39826   7.259  17.364  13.642
 3380DOPC   C3B39827   7.099  17.764  13.612
 3380DOPC   C4B39828   6.879  17.964  13.862
 3381DOPC   NC339829   8.019   6.354  14.682
 3381DOPC   PO439830   8.189   6.694  14.422
 3381DOPC   GL139831   8.109   6.854  13.982
 3381DOPC   GL239832   8.439   6.854  13.852
 3381DOPC   C1A39833   7.829   6.794  13.642
 3381DOPC   D2A39834   7.439   6.634  13.472
 3381DOPC   C3A39835   7.459   6.624  13.092
 3381DOPC   C4A39836   7.399   6.814  12.712
 3381DOPC   C1B39837   8.289   6.964  13.502
 3381DOPC   D2B39838   8.369   6.844  13.092
 3381DOPC   C3B39839   8.729   6.754  12.972
 3381DOPC   C4B39840   9.139   6.564  12.942
 3382DOPC   NC339841   7.849   5.784  10.892
 3382DOPC   PO439842   7.409   5.744  11.062
 3382DOPC   GL139843   7.339   5.644  11.472
 3382DOPC   GL239844   7.619   5.414  11.552
 3382DOPC   C1A39845   7.289   5.344  11.872
 3382DOPC   D2A39846   7.369   5.344  12.242
 3382DOPC   C3A39847   7.729   5.144  12.442
 3382DOPC   C4A39848   8.129   5.054  12.552
 3382DOPC   C1B39849   7.779   5.404  11.932
 3382DOPC   D2B39850   8.049   5.504  12.172
 3382DOPC   C3B39851   8.079   5.544  12.662
 3382DOPC   C4B39852   7.879   5.704  12.852
 3383DOPC   NC339853  13.779  18.304  14.602
 3383DOPC   PO439854  13.559  18.054  14.262
 3383DOPC   GL139855  13.489  18.464  14.162
 3383DOPC   GL239856  13.789  18.604  14.152
 3383DOPC   C1A39857  13.489  18.514  13.682
 3383DOPC   D2A39858  13.669  18.424  13.202
 3383DOPC   C3A39859  13.579  18.004  13.132
 3383DOPC   C4A39860  13.519  17.584  13.082
 3383DOPC   C1B39861  14.059  18.684  13.862
 3383DOPC   D2B39862  14.439  18.544  13.692
 3383DOPC   C3B39863  14.829  18.624  13.562
 3383DOPC   C4B39864  15.029  18.914  13.442
 3384DOPC   NC339865  11.229  17.604  10.972
 3384DOPC   PO439866  10.879  17.614  11.242
 3384DOPC   GL139867  11.139  17.854  11.532
 3384DOPC   GL239868  11.179  18.184  11.432
 3384DOPC   C1A39869  11.609  17.944  11.682
 3384DOPC   D2A39870  11.979  17.714  11.802
 3384DOPC   C3A39871  11.949  17.844  12.252
 3384DOPC   C4A39872  11.759  18.284  12.412
 3384DOPC   C1B39873  10.959  18.214  11.852
 3384DOPC   D2B39874  10.819  18.494  12.222
 3384DOPC   C3B39875  10.599  18.274  12.522
 3384DOPC   C4B39876  10.569  18.214  12.952
 3385DOPC   NC339877  16.549  20.704  15.532
 3385DOPC   PO439878  16.779  20.484  15.772
 3385DOPC   GL139879  16.879  20.164  15.492
 3385DOPC   GL239880  16.749  20.254  15.242
 3385DOPC   C1A39881  16.659  19.764  15.302
 3385DOPC   D2A39882  16.719  19.514  14.942
 3385DOPC   C3A39883  16.739  19.584  14.572
 3385DOPC   C4A39884  17.229  19.514  14.462
 3385DOPC   C1B39885  17.059  19.954  14.942
 3385DOPC   D2B39886  17.159  19.974  14.502
 3385DOPC   C3B39887  17.039  19.794  14.172
 3385DOPC   C4B39888  16.799  19.964  13.742
 3386DOPC   NC339889  25.219   9.104  11.752
 3386DOPC   PO439890  24.879   9.014  11.982
 3386DOPC   GL139891  24.769   8.914  12.392
 3386DOPC   GL239892  24.509   9.184  12.422
 3386DOPC   C1A39893  24.419   8.724  12.442
 3386DOPC   D2A39894  24.019   8.524  12.572
 3386DOPC   C3A39895  24.109   8.294  12.982
 3386DOPC   C4A39896  24.419   8.094  13.172
 3386DOPC   C1B39897  24.779   9.164  12.762
 3386DOPC   D2B39898  24.889   9.154  13.212
 3386DOPC   C3B39899  24.749   8.804  13.382
 3386DOPC   C4B39900  24.319   8.474  13.402
 3387DOPC   NC339901  17.819   1.604  11.972
 3387DOPC   PO439902  17.729   1.184  11.782
 3387DOPC   GL139903  17.639   1.064  12.222
 3387DOPC   GL239904  17.439   1.234  12.252
 3387DOPC   C1A39905  17.699   1.044  12.682
 3387DOPC   D2A39906  17.969   1.374  12.922
 3387DOPC   C3A39907  18.019   1.804  12.742
 3387DOPC   C4A39908  17.829   2.194  12.782
 3387DOPC   C1B39909  17.569   1.534  12.602
 3387DOPC   D2B39910  17.499   1.854  12.752
 3387DOPC   C3B39911  17.639   1.864  13.152
 3387DOPC   C4B39912  17.499   1.684  13.482
 3388DOPC   NC339913  21.829   6.974  15.512
 3388DOPC   PO439914  21.549   7.214  15.412
 3388DOPC   GL139915  21.689   7.144  15.022
 3388DOPC   GL239916  21.539   7.384  14.862
 3388DOPC   C1A39917  21.469   6.934  14.642
 3388DOPC   D2A39918  21.629   6.634  14.322
 3388DOPC   C3A39919  21.549   6.784  13.902
 3388DOPC   C4A39920  21.739   6.704  13.552
 3388DOPC   C1B39921  21.539   7.414  14.442
 3388DOPC   D2B39922  21.339   7.144  14.102
 3388DOPC   C3B39923  21.249   7.364  13.762
 3388DOPC   C4B39924  20.829   7.714  13.682
 3389DOPC   NC339925   5.549   7.404  11.522
 3389DOPC   PO439926   5.069   7.274  11.302
 3389DOPC   GL139927   5.199   7.064  11.652
 3389DOPC   GL239928   5.239   6.754  11.682
 3389DOPC   C1A39929   5.529   6.984  11.962
 3389DOPC   D2A39930   5.709   6.744  12.302
 3389DOPC   C3A39931   5.719   6.894  12.822
 3389DOPC   C4A39932   5.879   6.844  13.182
 3389DOPC   C1B39933   5.389   6.504  11.972
 3389DOPC   D2B39934   5.559   6.084  12.242
 3389DOPC   C3B39935   5.429   5.704  12.202
 3389DOPC   C4B39936   5.629   5.374  12.462
 3390DOPC   NC339937  19.589   3.524  15.272
 3390DOPC   PO439938  19.829   3.714  15.462
 3390DOPC   GL139939  20.159   3.684  15.082
 3390DOPC   GL239940  19.809   3.564  14.842
 3390DOPC   C1A39941  20.249   3.314  14.762
 3390DOPC   D2A39942  20.129   2.854  14.762
 3390DOPC   C3A39943  20.009   2.534  14.472
 3390DOPC   C4A39944  20.029   2.284  14.102
 3390DOPC   C1B39945  20.109   3.894  14.642
 3390DOPC   D2B39946  20.259   3.994  14.242
 3390DOPC   C3B39947  20.329   4.454  14.172
 3390DOPC   C4B39948  20.459   4.854  14.152
 3391DOPC   NC339949  20.449  12.874  12.022
 3391DOPC   PO439950  20.489  12.524  11.732
 3391DOPC   GL139951  20.579  12.374  12.092
 3391DOPC   GL239952  20.909  12.344  12.192
 3391DOPC   C1A39953  20.499  12.344  12.552
 3391DOPC   D2A39954  20.509  12.284  13.032
 3391DOPC   C3A39955  20.229  12.574  13.322
 3391DOPC   C4A39956  20.339  12.794  13.632
 3391DOPC   C1B39957  20.909  12.554  12.542
 3391DOPC   D2B39958  20.899  12.504  12.912
 3391DOPC   C3B39959  20.699  12.674  13.312
 3391DOPC   C4B39960  21.039  12.824  13.622
 3392DOPC   NC339961   2.389   7.424  15.242
 3392DOPC   PO439962   2.029   7.244  15.152
 3392DOPC   GL139963   2.159   7.324  14.702
 3392DOPC   GL239964   2.329   7.014  14.502
 3392DOPC   C1A39965   1.999   7.334  14.272
 3392DOPC   D2A39966   1.869   7.404  13.852
 3392DOPC   C3A39967   1.909   7.844  13.652
 3392DOPC   C4A39968   1.599   8.214  13.452
 3392DOPC   C1B39969   2.319   6.934  14.162
 3392DOPC   D2B39970   2.299   7.214  13.852
 3392DOPC   C3B39971   2.249   7.184  13.502
 3392DOPC   C4B39972   2.269   6.914  13.242
 3393DOPC   NC339973   5.299  25.211  11.002
 3393DOPC   PO439974   5.659  24.981  11.272
 3393DOPC   GL139975   5.769  25.141  11.702
 3393DOPC   GL239976   5.719  25.491  11.772
 3393DOPC   C1A39977   5.689  25.141  12.092
 3393DOPC   D2A39978   5.699  25.031  12.442
 3393DOPC   C3A39979   5.749  24.951  12.892
 3393DOPC   C4A39980   5.569  25.231  13.172
 3393DOPC   C1B39981   5.719  25.711  12.182
 3393DOPC   D2B39982   5.599  25.481  12.532
 3393DOPC   C3B39983   5.339  25.621  12.912
 3393DOPC   C4B39984   4.939  25.991  12.942
 3394DOPC   NC339985  21.269   1.734  12.092
 3394DOPC   PO439986  20.829   1.824  12.112
 3394DOPC   GL139987  20.979   1.964  12.492
 3394DOPC   GL239988  20.959   1.804  12.752
 3394DOPC   C1A39989  21.079   2.314  12.752
 3394DOPC   D2A39990  21.019   2.564  13.152
 3394DOPC   C3A39991  20.989   2.404  13.532
 3394DOPC   C4A39992  20.719   2.234  13.822
 3394DOPC   C1B39993  20.789   2.094  13.102
 3394DOPC   D2B39994  20.519   2.434  13.292
 3394DOPC   C3B39995  20.269   2.224  13.652
 3394DOPC   C4B39996  20.089   1.824  13.712
 3395DOPC   NC339997  24.539   4.724  15.812
 3395DOPC   PO439998  24.879   4.964  15.482
 3395DOPC   GL139999  24.749   4.914  15.072
 3395DOPC   GL240000  24.719   4.664  14.862
 3395DOPC   C1A40001  24.679   5.114  14.682
 3395DOPC   D2A40002  24.329   5.234  14.342
 3395DOPC   C3A40003  24.359   5.554  14.042
 3395DOPC   C4A40004  24.639   5.814  13.972
 3395DOPC   C1B40005  24.759   4.764  14.382
 3395DOPC   D2B40006  24.479   4.704  14.042
 3395DOPC   C3B40007  24.659   4.484  13.652
 3395DOPC   C4B40008  24.649   4.224  13.402
 3396DOPC   NC340009  15.979   0.194  12.032
 3396DOPC   PO440010  15.989   0.604  12.362
 3396DOPC   GL140011  16.239   0.434  12.652
 3396DOPC   GL240012  16.269   0.084  12.542
 3396DOPC   C1A40013  16.119   0.494  13.152
 3396DOPC   D2A40014  15.979   0.274  13.472
 3396DOPC   C3A40015  15.509   0.184  13.432
 3396DOPC   C4A40016  15.259   0.124  13.792
 3396DOPC   C1B40017  16.269   0.014  12.992
 3396DOPC   D2B40018  15.989  -0.196  13.352
 3396DOPC   C3B40019  16.149  -0.646  13.342
 3396DOPC   C4B40020  15.949  -0.996  13.432
 3397DOPC   NC340021   4.339   9.214  11.642
 3397DOPC   PO440022   3.949   9.354  11.812
 3397DOPC   GL140023   4.089   9.424  12.182
 3397DOPC   GL240024   4.379   9.334  12.372
 3397DOPC   C1A40025   3.979   9.664  12.502
 3397DOPC   D2A40026   3.959   9.914  12.822
 3397DOPC   C3A40027   3.609  10.154  13.022
 3397DOPC   C4A40028   3.299  10.174  13.272
 3397DOPC   C1B40029   4.729   9.134  12.672
 3397DOPC   D2B40030   5.149   8.944  12.702
 3397DOPC   C3B40031   5.329   8.724  12.922
 3397DOPC   C4B40032   5.339   8.394  13.212
 3398DOPC   NC340033   2.599  20.294  16.002
 3398DOPC   PO440034   2.689  20.484  15.462
 3398DOPC   GL140035   2.739  20.334  15.032
 3398DOPC   GL240036   2.639  20.634  14.852
 3398DOPC   C1A40037   2.879  19.904  14.802
 3398DOPC   D2A40038   3.169  19.854  14.422
 3398DOPC   C3A40039   3.579  19.894  14.352
 3398DOPC   C4A40040   3.789  19.884  13.952
 3398DOPC   C1B40041   2.729  20.664  14.392
 3398DOPC   D2B40042   2.649  20.654  13.922
 3398DOPC   C3B40043   2.499  21.024  13.772
 3398DOPC   C4B40044   2.709  21.304  13.712
 3399DOPC   NC340045  20.119   8.774  11.212
 3399DOPC   PO440046  20.219   8.384  11.152
 3399DOPC   GL140047  20.129   8.364  11.562
 3399DOPC   GL240048  19.799   8.184  11.562
 3399DOPC   C1A40049  19.999   8.554  11.902
 3399DOPC   D2A40050  20.169   8.864  12.182
 3399DOPC   C3A40051  20.289   8.784  12.552
 3399DOPC   C4A40052  20.489   8.684  12.912
 3399DOPC   C1B40053  19.589   8.204  12.002
 3399DOPC   D2B40054  19.629   8.034  12.432
 3399DOPC   C3B40055  19.279   8.104  12.782
 3399DOPC   C4B40056  19.049   7.924  13.152
 3400DOPC   NC340057   5.649  16.494  15.502
 3400DOPC   PO440058   5.239  16.294  15.312
 3400DOPC   GL140059   4.959  16.204  15.042
 3400DOPC   GL240060   4.879  16.604  14.952
 3400DOPC   C1A40061   5.049  16.024  14.632
 3400DOPC   D2A40062   4.879  16.104  14.192
 3400DOPC   C3A40063   4.459  16.074  14.102
 3400DOPC   C4A40064   4.019  16.134  13.942
 3400DOPC   C1B40065   4.779  16.444  14.512
 3400DOPC   D2B40066   4.439  16.574  14.242
 3400DOPC   C3B40067   4.519  16.874  13.892
 3400DOPC   C4B40068   4.839  16.884  13.682
 3401DOPC   NC340069  24.689   1.174  11.902
 3401DOPC   PO440070  24.869   1.214  12.212
 3401DOPC   GL140071  24.799   1.104  12.642
 3401DOPC   GL240072  24.679   1.314  12.732
 3401DOPC   C1A40073  24.979   1.104  13.122
 3401DOPC   D2A40074  24.959   1.284  13.542
 3401DOPC   C3A40075  24.839   1.034  13.822
 3401DOPC   C4A40076  24.749   0.774  14.062
 3401DOPC   C1B40077  24.399   1.384  13.192
 3401DOPC   D2B40078  24.129   1.144  13.482
 3401DOPC   C3B40079  24.469   0.754  13.562
 3401DOPC   C4B40080  24.489   0.304  13.362
 3402DOPC   NC340081  12.359  14.904  10.772
 3402DOPC   PO440082  12.239  14.514  10.872
 3402DOPC   GL140083  12.339  14.404  11.162
 3402DOPC   GL240084  12.669  14.444  11.252
 3402DOPC   C1A40085  12.199  14.554  11.612
 3402DOPC   D2A40086  12.329  14.494  11.982
 3402DOPC   C3A40087  12.229  14.354  12.402
 3402DOPC   C4A40088  12.299  13.964  12.592
 3402DOPC   C1B40089  12.809  14.704  11.622
 3402DOPC   D2B40090  12.819  14.844  11.982
 3402DOPC   C3B40091  12.539  14.854  12.302
 3402DOPC   C4B40092  12.359  14.774  12.602
 3403DOPC   NC340093  11.229   1.364  14.632
 3403DOPC   PO440094  11.429   0.944  14.542
 3403DOPC   GL140095  11.159   1.024  14.222
 3403DOPC   GL240096  11.239   0.884  13.852
 3403DOPC   C1A40097  10.779   1.084  13.952
 3403DOPC   D2A40098  10.709   1.164  13.542
 3403DOPC   C3A40099  11.119   1.074  13.432
 3403DOPC   C4A40100  11.439   1.344  13.342
 3403DOPC   C1B40101  11.579   1.104  13.852
 3403DOPC   D2B40102  11.619   1.654  13.822
 3403DOPC   C3B40103  11.789   1.794  13.432
 3403DOPC   C4B40104  11.799   1.994  13.142
 3404DOPC   NC340105   5.309  20.674   7.922
 3404DOPC   PO440106   5.169  20.294   7.932
 3404DOPC   GL140107   5.129  20.214   7.562
 3404DOPC   GL240108   5.069  20.484   7.292
 3404DOPC   C1A40109   5.159  20.034   7.092
 3404DOPC   D2A40110   5.119  20.284   6.862
 3404DOPC   C3A40111   5.189  20.294   6.362
 3404DOPC   C4A40112   5.209  20.464   5.982
 3404DOPC   C1B40113   4.729  20.364   7.112
 3404DOPC   D2B40114   4.669  20.214   6.702
 3404DOPC   C3B40115   4.899  19.854   6.642
 3404DOPC   C4B40116   5.309  19.754   6.522
 3405DOPC   NC340117  14.509  21.074  15.322
 3405DOPC   PO440118  14.289  20.634  15.162
 3405DOPC   GL140119  14.499  20.764  14.842
 3405DOPC   GL240120  14.359  21.104  14.812
 3405DOPC   C1A40121  14.779  20.624  14.402
 3405DOPC   D2A40122  14.969  20.664  13.952
 3405DOPC   C3A40123  14.639  20.864  13.752
 3405DOPC   C4A40124  14.099  21.004  13.652
 3405DOPC   C1B40125  14.379  21.471  14.402
 3405DOPC   D2B40126  14.159  21.571  14.042
 3405DOPC   C3B40127  13.699  21.781  14.132
 3405DOPC   C4B40128  13.199  21.931  14.362
 3406DOPC   NC340129  18.829  19.204  11.842
 3406DOPC   PO440130  18.419  19.344  11.712
 3406DOPC   GL140131  18.429  19.404  12.202
 3406DOPC   GL240132  18.239  19.264  12.342
 3406DOPC   C1A40133  18.669  19.404  12.662
 3406DOPC   D2A40134  18.589  19.794  12.952
 3406DOPC   C3A40135  18.479  19.644  13.362
 3406DOPC   C4A40136  18.319  19.754  13.792
 3406DOPC   C1B40137  17.949  19.234  12.632
 3406DOPC   D2B40138  17.909  18.944  13.012
 3406DOPC   C3B40139  17.509  19.034  13.172
 3406DOPC   C4B40140  17.219  19.064  13.522
 3407DOPC   NC340141   7.809  19.844  15.502
 3407DOPC   PO440142   8.209  19.924  15.452
 3407DOPC   GL140143   8.199  20.064  15.022
 3407DOPC   GL240144   8.299  19.814  14.722
 3407DOPC   C1A40145   7.989  20.094  14.592
 3407DOPC   D2A40146   8.019  19.854  14.192
 3407DOPC   C3A40147   8.019  19.954  13.772
 3407DOPC   C4A40148   8.119  19.994  13.362
 3407DOPC   C1B40149   8.109  19.454  14.442
 3407DOPC   D2B40150   7.979  19.244  14.082
 3407DOPC   C3B40151   7.549  18.954  14.152
 3407DOPC   C4B40152   7.129  19.014  14.182
 3408DOPC   NC340153   9.199  21.821  15.362
 3408DOPC   PO440154   9.109  21.371  15.292
 3408DOPC   GL140155   9.099  21.421  14.852
 3408DOPC   GL240156   8.949  21.124  14.652
 3408DOPC   C1A40157   8.939  21.601  14.482
 3408DOPC   D2A40158   8.939  21.751  14.062
 3408DOPC   C3A40159   9.149  22.181  13.982
 3408DOPC   C4A40160   9.389  22.261  13.752
 3408DOPC   C1B40161   9.189  20.844  14.262
 3408DOPC   D2B40162   9.209  20.464  13.942
 3408DOPC   C3B40163   8.869  20.214  14.092
 3408DOPC   C4B40164   9.019  19.844  14.322
 3409DOPC   NC340165  13.409  23.581  11.792
 3409DOPC   PO440166  13.789  23.251  11.752
 3409DOPC   GL140167  13.609  23.361  12.212
 3409DOPC   GL240168  13.399  23.061  12.332
 3409DOPC   C1A40169  13.579  23.401  12.602
 3409DOPC   D2A40170  13.869  23.271  12.962
 3409DOPC   C3A40171  13.849  23.201  13.412
 3409DOPC   C4A40172  13.779  22.831  13.612
 3409DOPC   C1B40173  13.079  23.001  12.642
 3409DOPC   D2B40174  13.389  23.021  13.002
 3409DOPC   C3B40175  13.319  22.821  13.412
 3409DOPC   C4B40176  13.159  22.671  13.852
 3410DOPC   NC340177  -0.419  10.374  15.542
 3410DOPC   PO440178  -0.439   9.994  15.252
 3410DOPC   GL140179  -0.119   9.874  14.962
 3410DOPC   GL240180   0.239   9.884  15.052
 3410DOPC   C1A40181  -0.099  10.144  14.652
 3410DOPC   D2A40182   0.179  10.324  14.402
 3410DOPC   C3A40183   0.189  10.384  14.002
 3410DOPC   C4A40184  -0.209  10.384  13.762
 3410DOPC   C1B40185   0.399   9.914  14.722
 3410DOPC   D2B40186   0.799   9.794  14.412
 3410DOPC   C3B40187   0.939   9.724  14.042
 3410DOPC   C4B40188   0.779   9.564  13.642
 3411DOPC   NC340189   7.049   8.924  10.832
 3411DOPC   PO440190   7.289   8.624  10.762
 3411DOPC   GL140191   7.529   8.744  11.152
 3411DOPC   GL240192   7.599   9.074  11.252
 3411DOPC   C1A40193   7.719   8.564  11.482
 3411DOPC   D2A40194   7.859   8.024  11.462
 3411DOPC   C3A40195   8.009   7.634  11.712
 3411DOPC   C4A40196   8.299   7.484  12.092
 3411DOPC   C1B40197   7.529   9.294  11.652
 3411DOPC   D2B40198   7.799   9.304  12.012
 3411DOPC   C3B40199   7.699   9.084  12.462
 3411DOPC   C4B40200   7.499   8.614  12.642
 3412DOPC   NC340201  22.869   2.764  15.562
 3412DOPC   PO440202  22.409   2.904  15.562
 3412DOPC   GL140203  22.349   2.994  15.142
 3412DOPC   GL240204  22.379   3.324  15.062
 3412DOPC   C1A40205  22.029   3.104  14.782
 3412DOPC   D2A40206  22.249   3.304  14.372
 3412DOPC   C3A40207  22.439   3.254  14.052
 3412DOPC   C4A40208  22.629   3.404  13.602
 3412DOPC   C1B40209  22.579   3.114  14.722
 3412DOPC   D2B40210  22.689   2.834  14.342
 3412DOPC   C3B40211  22.549   2.354  14.312
 3412DOPC   C4B40212  22.299   2.184  14.012
 3413DOPC   NC340213  22.269   5.554  11.562
 3413DOPC   PO440214  22.519   5.864  11.542
 3413DOPC   GL140215  22.529   5.824  11.992
 3413DOPC   GL240216  22.279   5.644  12.082
 3413DOPC   C1A40217  22.639   5.714  12.442
 3413DOPC   D2A40218  22.799   5.454  12.752
 3413DOPC   C3A40219  22.649   5.674  13.052
 3413DOPC   C4A40220  22.289   5.614  13.412
 3413DOPC   C1B40221  22.089   5.464  12.312
 3413DOPC   D2B40222  21.869   5.244  12.602
 3413DOPC   C3B40223  21.999   5.434  13.092
 3413DOPC   C4B40224  21.999   5.054  13.382
 3414DOPC   NC340225  19.249  22.191  11.482
 3414DOPC   PO440226  19.049  22.371  11.822
 3414DOPC   GL140227  18.869  22.311  12.262
 3414DOPC   GL240228  18.949  21.961  12.512
 3414DOPC   C1A40229  18.679  22.331  12.692
 3414DOPC   D2A40230  18.479  22.411  13.132
 3414DOPC   C3A40231  18.159  22.321  13.472
 3414DOPC   C4A40232  18.069  21.981  13.692
 3414DOPC   C1B40233  18.879  21.951  12.942
 3414DOPC   D2B40234  18.999  21.961  13.252
 3414DOPC   C3B40235  18.769  22.251  13.692
 3414DOPC   C4B40236  18.679  22.591  13.942
 3415DOPC   NC340237   1.669  25.301  15.732
 3415DOPC   PO440238   1.579  24.861  15.672
 3415DOPC   GL140239   1.459  24.761  15.252
 3415DOPC   GL240240   1.679  25.071  15.192
 3415DOPC   C1A40241   1.679  24.741  14.812
 3415DOPC   D2A40242   1.759  24.791  14.442
 3415DOPC   C3A40243   1.539  24.971  14.102
 3415DOPC   C4A40244   1.649  25.051  13.712
 3415DOPC   C1B40245   1.499  25.221  14.872
 3415DOPC   D2B40246   1.279  25.161  14.532
 3415DOPC   C3B40247   1.389  25.431  14.292
 3415DOPC   C4B40248   1.759  25.581  13.952
 3416DOPC   NC340249  19.849  20.304  15.942
 3416DOPC   PO440250  20.279  20.364  15.892
 3416DOPC   GL140251  20.129  20.454  15.502
 3416DOPC   GL240252  19.889  20.154  15.442
 3416DOPC   C1A40253  20.269  20.654  15.062
 3416DOPC   D2A40254  20.339  20.854  14.602
 3416DOPC   C3A40255  20.089  20.664  14.202
 3416DOPC   C4A40256  19.849  20.774  13.872
 3416DOPC   C1B40257  19.679  20.054  15.062
 3416DOPC   D2B40258  19.669  20.134  14.632
 3416DOPC   C3B40259  19.309  19.984  14.362
 3416DOPC   C4B40260  18.939  19.714  14.432
 3417DOPC   NC340261   3.929  11.684  11.272
 3417DOPC   PO440262   4.359  11.924  11.252
 3417DOPC   GL140263   4.189  12.004  11.682
 3417DOPC   GL240264   3.849  11.774  11.772
 3417DOPC   C1A40265   4.159  12.064  12.092
 3417DOPC   D2A40266   4.069  12.084  12.522
 3417DOPC   C3A40267   3.939  12.304  12.882
 3417DOPC   C4A40268   3.899  12.654  13.122
 3417DOPC   C1B40269   3.709  11.924  12.132
 3417DOPC   D2B40270   3.369  12.004  12.412
 3417DOPC   C3B40271   3.639  11.954  12.842
 3417DOPC   C4B40272   3.839  11.714  13.142
 3418DOPC   NC340273   3.739  18.414  15.872
 3418DOPC   PO440274   3.319  18.244  15.842
 3418DOPC   GL140275   3.409  18.504  15.472
 3418DOPC   GL240276   3.649  18.604  15.322
 3418DOPC   C1A40277   3.179  18.554  15.162
 3418DOPC   D2A40278   2.769  18.754  15.082
 3418DOPC   C3A40279   2.689  18.944  14.692
 3418DOPC   C4A40280   2.619  18.994  14.292
 3418DOPC   C1B40281   3.679  18.644  14.922
 3418DOPC   D2B40282   4.029  18.474  14.632
 3418DOPC   C3B40283   3.899  18.384  14.222
 3418DOPC   C4B40284   3.709  18.424  13.802
 3419DOPC   NC340285  14.089   0.404  11.402
 3419DOPC   PO440286  14.429   0.094  11.552
 3419DOPC   GL140287  14.369   0.334  11.932
 3419DOPC   GL240288  14.049   0.454  11.982
 3419DOPC   C1A40289  14.299   0.134  12.322
 3419DOPC   D2A40290  14.479  -0.006  12.642
 3419DOPC   C3A40291  14.419   0.034  13.042
 3419DOPC   C4A40292  14.289  -0.036  13.392
 3419DOPC   C1B40293  14.329   0.674  12.292
 3419DOPC   D2B40294  14.169   0.974  12.662
 3419DOPC   C3B40295  13.869   0.764  12.902
 3419DOPC   C4B40296  13.529   0.474  12.972
 3420DOPC   NC340297  18.889  22.051  15.542
 3420DOPC   PO440298  18.829  22.221  15.202
 3420DOPC   GL140299  18.659  22.031  14.812
 3420DOPC   GL240300  18.299  22.091  14.752
 3420DOPC   C1A40301  18.519  21.711  14.492
 3420DOPC   D2A40302  18.429  21.681  14.052
 3420DOPC   C3A40303  18.519  21.381  13.722
 3420DOPC   C4A40304  18.339  21.054  13.712
 3420DOPC   C1B40305  18.239  22.091  14.372
 3420DOPC   D2B40306  18.309  22.291  13.992
 3420DOPC   C3B40307  17.839  22.441  13.862
 3420DOPC   C4B40308  17.489  22.571  13.812
 3421DOPC   NC340309   4.869  11.214  15.152
 3421DOPC   PO440310   4.529  10.914  15.282
 3421DOPC   GL140311   4.449  10.584  14.892
 3421DOPC   GL240312   4.709  10.444  14.832
 3421DOPC   C1A40313   4.349  10.284  14.482
 3421DOPC   D2A40314   4.069  10.264  14.212
 3421DOPC   C3A40315   3.879  10.664  14.022
 3421DOPC   C4A40316   3.499  10.864  13.962
 3421DOPC   C1B40317   4.949  10.104  14.482
 3421DOPC   D2B40318   5.129  10.094  14.062
 3421DOPC   C3B40319   4.919  10.244  13.702
 3421DOPC   C4B40320   4.659  10.264  13.342
 3422DOPC   NC340321  23.789   0.574  11.522
 3422DOPC   PO440322  23.599   0.604  11.992
 3422DOPC   GL140323  23.869   0.634  12.402
 3422DOPC   GL240324  23.729   0.804  12.472
 3422DOPC   C1A40325  24.219   0.734  12.692
 3422DOPC   D2A40326  24.439   0.934  13.002
 3422DOPC   C3A40327  24.869   0.614  13.172
 3422DOPC   C4A40328  25.269   0.784  13.382
 3422DOPC   C1B40329  23.749   0.654  12.882
 3422DOPC   D2B40330  24.069   0.664  13.232
 3422DOPC   C3B40331  24.029   0.434  13.582
 3422DOPC   C4B40332  23.829   0.164  13.692
 3423DOPC   NC340333  15.289   8.214  14.632
 3423DOPC   PO440334  15.799   7.994  14.642
 3423DOPC   GL140335  15.859   7.984  14.212
 3423DOPC   GL240336  15.519   7.964  14.212
 3423DOPC   C1A40337  15.849   7.634  13.942
 3423DOPC   D2A40338  15.709   7.614  13.582
 3423DOPC   C3A40339  15.869   7.854  13.272
 3423DOPC   C4A40340  15.999   8.034  12.972
 3423DOPC   C1B40341  15.669   8.184  13.772
 3423DOPC   D2B40342  15.819   8.364  13.502
 3423DOPC   C3B40343  16.019   8.724  13.282
 3423DOPC   C4B40344  16.399   9.014  13.142
 3424DOPC   NC340345   1.339   3.374  15.702
 3424DOPC   PO440346   1.679   3.154  15.422
 3424DOPC   GL140347   1.689   2.954  14.962
 3424DOPC   GL240348   1.759   3.184  14.672
 3424DOPC   C1A40349   1.539   2.764  14.532
 3424DOPC   D2A40350   1.739   2.594  14.152
 3424DOPC   C3A40351   1.769   2.114  14.112
 3424DOPC   C4A40352   1.909   1.684  14.242
 3424DOPC   C1B40353   1.689   3.334  14.232
 3424DOPC   D2B40354   1.659   3.174  13.792
 3424DOPC   C3B40355   1.229   3.234  13.692
 3424DOPC   C4B40356   0.949   2.974  13.462
 3425DOPC   NC340357  22.049  10.524  11.312
 3425DOPC   PO440358  21.789  10.194  11.512
 3425DOPC   GL140359  21.719  10.054  11.952
 3425DOPC   GL240360  21.709  10.364  12.192
 3425DOPC   C1A40361  21.599   9.914  12.392
 3425DOPC   D2A40362  21.299   9.794  12.662
 3425DOPC   C3A40363  21.309   9.854  13.172
 3425DOPC   C4A40364  21.399  10.154  13.512
 3425DOPC   C1B40365  21.279  10.584  12.442
 3425DOPC   D2B40366  20.789  10.634  12.552
 3425DOPC   C3B40367  20.749  10.634  13.012
 3425DOPC   C4B40368  20.519  10.384  13.292
 3426DOPC   NC340369  13.969  24.401  15.212
 3426DOPC   PO440370  13.619  24.731  15.392
 3426DOPC   GL140371  13.649  24.771  14.982
 3426DOPC   GL240372  13.429  25.111  14.872
 3426DOPC   C1A40373  13.619  24.621  14.542
 3426DOPC   D2A40374  13.809  24.651  14.142
 3426DOPC   C3A40375  13.789  24.321  13.902
 3426DOPC   C4A40376  13.789  24.321  13.472
 3426DOPC   C1B40377  13.669  25.151  14.552
 3426DOPC   D2B40378  13.729  25.201  14.202
 3426DOPC   C3B40379  13.999  25.461  14.022
 3426DOPC   C4B40380  14.019  25.811  13.852
 3427DOPC   NC340381  24.399  14.524  12.012
 3427DOPC   PO440382  24.809  14.444  12.062
 3427DOPC   GL140383  24.809  14.554  12.472
 3427DOPC   GL240384  25.109  14.694  12.692
 3427DOPC   C1A40385  24.779  14.394  12.882
 3427DOPC   D2A40386  25.059  14.364  13.282
 3427DOPC   C3A40387  25.049  14.574  13.592
 3427DOPC   C4A40388  25.269  14.794  13.932
 3427DOPC   C1B40389  25.289  14.374  12.852
 3427DOPC   D2B40390  25.539  14.164  13.292
 3427DOPC   C3B40391  25.666  13.704  13.322
 3427DOPC   C4B40392  26.036  13.604  13.462
 3428DOPC   NC340393  24.579  23.391  11.942
 3428DOPC   PO440394  24.379  23.851  12.162
 3428DOPC   GL140395  24.599  24.011  12.542
 3428DOPC   GL240396  24.289  24.081  12.772
 3428DOPC   C1A40397  24.779  24.351  12.842
 3428DOPC   D2A40398  25.089  24.631  12.862
 3428DOPC   C3A40399  25.059  24.891  13.092
 3428DOPC   C4A40400  25.309  24.991  13.362
 3428DOPC   C1B40401  24.089  24.171  13.292
 3428DOPC   D2B40402  23.969  24.381  13.562
 3428DOPC   C3B40403  24.409  24.661  13.592
 3428DOPC   C4B40404  24.759  24.871  13.702
 3429DOPC   NC340405  20.549  15.424  11.242
 3429DOPC   PO440406  20.329  15.494  11.702
 3429DOPC   GL140407  20.479  15.414  12.142
 3429DOPC   GL240408  20.219  15.534  12.232
 3429DOPC   C1A40409  20.589  15.114  12.492
 3429DOPC   D2A40410  20.719  14.744  12.732
 3429DOPC   C3A40411  20.959  14.704  13.162
 3429DOPC   C4A40412  21.129  14.364  13.432
 3429DOPC   C1B40413  20.239  15.494  12.732
 3429DOPC   D2B40414  20.299  15.474  13.212
 3429DOPC   C3B40415  20.289  15.814  13.562
 3429DOPC   C4B40416  20.399  16.074  13.892
 3430DOPC   NC340417   4.449  20.684  11.192
 3430DOPC   PO440418   4.559  20.374  11.362
 3430DOPC   GL140419   4.519  20.264  11.872
 3430DOPC   GL240420   4.249  20.324  12.082
 3430DOPC   C1A40421   4.749  20.204  12.272
 3430DOPC   D2A40422   5.189  20.084  12.342
 3430DOPC   C3A40423   5.429  20.324  12.652
 3430DOPC   C4A40424   5.639  20.404  12.992
 3430DOPC   C1B40425   3.959  20.504  12.422
 3430DOPC   D2B40426   3.779  20.214  12.752
 3430DOPC   C3B40427   3.609  20.414  13.072
 3430DOPC   C4B40428   3.249  20.314  13.262
 3431DOPC   NC340429  12.709  24.881  11.372
 3431DOPC   PO440430  13.069  24.611  11.602
 3431DOPC   GL140431  13.099  24.551  11.972
 3431DOPC   GL240432  13.359  24.491  12.052
 3431DOPC   C1A40433  13.209  24.781  12.412
 3431DOPC   D2A40434  13.289  25.161  12.492
 3431DOPC   C3A40435  13.099  25.431  12.922
 3431DOPC   C4A40436  12.859  25.771  13.012
 3431DOPC   C1B40437  13.049  24.311  12.372
 3431DOPC   D2B40438  12.829  23.961  12.582
 3431DOPC   C3B40439  12.399  24.091  12.512
 3431DOPC   C4B40440  12.109  24.111  12.222
 3432DOPC   NC340441  19.729  12.014  11.712
 3432DOPC   PO440442  19.459  11.824  11.512
 3432DOPC   GL140443  19.269  11.854  11.962
 3432DOPC   GL240444  19.569  11.974  12.192
 3432DOPC   C1A40445  19.109  11.924  12.402
 3432DOPC   D2A40446  18.929  12.024  12.832
 3432DOPC   C3A40447  19.139  12.134  13.242
 3432DOPC   C4A40448  19.359  12.304  13.662
 3432DOPC   C1B40449  19.559  12.064  12.662
 3432DOPC   D2B40450  19.369  11.694  12.812
 3432DOPC   C3B40451  18.989  11.544  12.652
 3432DOPC   C4B40452  18.659  11.214  12.592
 3433DOPC   NC340453   1.269   7.104  15.022
 3433DOPC   PO440454   0.859   7.044  15.192
 3433DOPC   GL140455   0.679   7.194  14.782
 3433DOPC   GL240456   0.349   7.264  14.832
 3433DOPC   C1A40457   0.759   7.414  14.422
 3433DOPC   D2A40458   0.939   7.574  14.022
 3433DOPC   C3A40459   1.009   7.994  13.822
 3433DOPC   C4A40460   1.309   8.354  13.892
 3433DOPC   C1B40461   0.309   7.184  14.442
 3433DOPC   D2B40462   0.021   7.344  14.192
 3433DOPC   C3B40463  -0.009   7.384  13.732
 3433DOPC   C4B40464   0.031   7.474  13.222
 3434DOPC   NC340465  25.589   3.504  11.232
 3434DOPC   PO440466  25.666   3.114  11.442
 3434DOPC   GL140467  25.479   3.054  11.872
 3434DOPC   GL240468  25.369   2.624  12.002
 3434DOPC   C1A40469  25.499   3.104  12.352
 3434DOPC   D2A40470  25.379   3.364  12.782
 3434DOPC   C3A40471  25.569   3.264  13.092
 3434DOPC   C4A40472  25.559   3.124  13.492
 3434DOPC   C1B40473  25.269   2.614  12.462
 3434DOPC   D2B40474  25.519   2.844  12.772
 3434DOPC   C3B40475  25.519   2.744  13.182
 3434DOPC   C4B40476  25.766   2.574  13.512
 3435DOPC   NC340477   5.279  23.501  11.312
 3435DOPC   PO440478   5.479  23.221  11.562
 3435DOPC   GL140479   5.229  23.441  11.852
 3435DOPC   GL240480   5.369  23.731  11.852
 3435DOPC   C1A40481   5.039  23.281  12.202
 3435DOPC   D2A40482   5.069  23.211  12.612
 3435DOPC   C3A40483   4.779  23.191  12.992
 3435DOPC   C4A40484   4.479  23.231  13.312
 3435DOPC   C1B40485   5.129  23.861  12.192
 3435DOPC   D2B40486   5.049  23.691  12.562
 3435DOPC   C3B40487   5.329  23.611  12.922
 3435DOPC   C4B40488   5.699  23.411  13.212
 3436DOPC   NC340489   1.749  10.834  15.132
 3436DOPC   PO440490   1.639  11.244  14.942
 3436DOPC   GL140491   1.379  11.444  14.562
 3436DOPC   GL240492   1.329  11.714  14.672
 3436DOPC   C1A40493   1.199  11.644  14.172
 3436DOPC   D2A40494   1.009  11.644  13.762
 3436DOPC   C3A40495   0.759  11.994  13.742
 3436DOPC   C4A40496   0.419  12.064  13.842
 3436DOPC   C1B40497   0.889  11.784  14.562
 3436DOPC   D2B40498   0.759  11.924  14.222
 3436DOPC   C3B40499   0.569  11.594  14.072
 3436DOPC   C4B40500   0.509  11.284  13.812
 3437DOPC   NC340501  25.229   2.824  11.542
 3437DOPC   PO440502  25.009   2.464  11.672
 3437DOPC   GL140503  24.909   2.354  12.062
 3437DOPC   GL240504  25.099   2.144  12.292
 3437DOPC   C1A40505  24.769   2.584  12.422
 3437DOPC   D2A40506  24.469   2.654  12.752
 3437DOPC   C3A40507  24.499   2.344  13.042
 3437DOPC   C4A40508  24.799   2.284  13.322
 3437DOPC   C1B40509  24.949   2.274  12.742
 3437DOPC   D2B40510  25.029   2.634  13.012
 3437DOPC   C3B40511  24.639   2.744  13.262
 3437DOPC   C4B40512  24.209   2.494  13.462
 3438DOPC   NC340513  21.849  22.931  12.452
 3438DOPC   PO440514  21.469  23.111  12.552
 3438DOPC   GL140515  21.219  23.211  12.952
 3438DOPC   GL240516  21.379  23.571  13.072
 3438DOPC   C1A40517  20.929  23.001  13.182
 3438DOPC   D2A40518  20.879  22.861  13.562
 3438DOPC   C3A40519  20.569  23.121  13.832
 3438DOPC   C4A40520  20.439  23.521  14.032
 3438DOPC   C1B40521  21.509  23.171  13.332
 3438DOPC   D2B40522  21.819  23.161  13.692
 3438DOPC   C3B40523  21.629  23.371  14.092
 3438DOPC   C4B40524  21.379  23.571  14.352
 3439DOPC   NC340525  16.319  19.074  11.622
 3439DOPC   PO440526  16.649  18.764  11.752
 3439DOPC   GL140527  16.549  19.024  12.172
 3439DOPC   GL240528  16.919  19.144  12.222
 3439DOPC   C1A40529  16.619  19.034  12.632
 3439DOPC   D2A40530  16.939  18.954  13.002
 3439DOPC   C3A40531  16.679  19.154  13.232
 3439DOPC   C4A40532  16.629  19.524  13.452
 3439DOPC   C1B40533  17.089  18.794  12.432
 3439DOPC   D2B40534  16.969  18.524  12.672
 3439DOPC   C3B40535  16.719  18.514  13.122
 3439DOPC   C4B40536  16.759  18.694  13.422
 3440DOPC   NC340537  19.649  10.974  11.672
 3440DOPC   PO440538  19.699  10.744  11.912
 3440DOPC   GL140539  19.399  10.804  12.232
 3440DOPC   GL240540  19.519  10.444  12.232
 3440DOPC   C1A40541  19.209  10.534  12.652
 3440DOPC   D2A40542  19.109  10.334  13.082
 3440DOPC   C3A40543  19.389   9.904  13.162
 3440DOPC   C4A40544  19.869   9.804  13.182
 3440DOPC   C1B40545  19.669   9.904  12.152
 3440DOPC   D2B40546  19.629   9.524  12.402
 3440DOPC   C3B40547  19.379   9.604  12.652
 3440DOPC   C4B40548  19.469   9.404  13.032
 3441DOPC   NC340549  10.659   2.004  10.732
 3441DOPC   PO440550  10.469   2.294  10.872
 3441DOPC   GL140551  10.699   2.364  11.202
 3441DOPC   GL240552  10.569   2.494  11.552
 3441DOPC   C1A40553  11.099   2.344  11.342
 3441DOPC   D2A40554  11.499   2.324  11.582
 3441DOPC   C3A40555  11.529   2.124  11.992
 3441DOPC   C4A40556  11.419   1.744  12.252
 3441DOPC   C1B40557  10.859   2.234  11.822
 3441DOPC   D2B40558  11.119   2.284  12.182
 3441DOPC   C3B40559  11.059   2.524  12.462
 3441DOPC   C4B40560  11.089   2.924  12.272
 3442DOPC   NC340561   7.399  24.791  11.242
 3442DOPC   PO440562   7.589  24.271  11.192
 3442DOPC   GL140563   7.599  24.391  11.552
 3442DOPC   GL240564   7.289  24.191  11.622
 3442DOPC   C1A40565   7.589  24.571  12.072
 3442DOPC   D2A40566   7.709  24.881  12.442
 3442DOPC   C3A40567   7.929  24.781  12.742
 3442DOPC   C4A40568   7.879  24.391  12.972
 3442DOPC   C1B40569   7.289  24.121  12.072
 3442DOPC   D2B40570   7.379  24.341  12.512
 3442DOPC   C3B40571   7.419  24.611  12.842
 3442DOPC   C4B40572   7.569  25.061  12.872
 3443DOPC   NC340573   8.669  11.354  10.892
 3443DOPC   PO440574   8.299  11.194  11.012
 3443DOPC   GL140575   8.369  11.134  11.522
 3443DOPC   GL240576   8.409  11.494  11.582
 3443DOPC   C1A40577   8.169  11.184  11.992
 3443DOPC   D2A40578   8.409  11.324  12.352
 3443DOPC   C3A40579   8.279  11.124  12.832
 3443DOPC   C4A40580   8.399  10.974  13.212
 3443DOPC   C1B40581   8.449  11.674  12.002
 3443DOPC   D2B40582   8.659  11.984  12.292
 3443DOPC   C3B40583   8.399  12.084  12.642
 3443DOPC   C4B40584   8.359  11.904  13.032
 3444DOPC   NC340585  15.739   7.424  14.502
 3444DOPC   PO440586  15.379   7.184  14.532
 3444DOPC   GL140587  15.459   7.274  14.052
 3444DOPC   GL240588  15.789   7.134  13.962
 3444DOPC   C1A40589  15.339   7.274  13.612
 3444DOPC   D2A40590  15.479   7.294  13.182
 3444DOPC   C3A40591  15.259   7.574  12.922
 3444DOPC   C4A40592  15.009   7.904  12.562
 3444DOPC   C1B40593  15.829   7.024  13.602
 3444DOPC   D2B40594  15.819   6.854  13.202
 3444DOPC   C3B40595  15.429   6.684  13.222
 3444DOPC   C4B40596  15.009   6.774  13.372
 3445DOPC   NC340597  18.109  14.684  15.292
 3445DOPC   PO440598  17.609  14.674  15.262
 3445DOPC   GL140599  17.669  14.764  14.752
 3445DOPC   GL240600  18.029  14.764  14.722
 3445DOPC   C1A40601  17.709  14.914  14.322
 3445DOPC   D2A40602  17.779  14.734  13.912
 3445DOPC   C3A40603  17.379  14.674  13.692
 3445DOPC   C4A40604  17.039  14.884  13.422
 3445DOPC   C1B40605  18.179  14.754  14.322
 3445DOPC   D2B40606  18.629  14.854  14.192
 3445DOPC   C3B40607  18.889  15.124  14.052
 3445DOPC   C4B40608  19.249  15.394  14.102
 3446DOPC   NC340609  13.389   5.274  10.812
 3446DOPC   PO440610  13.519   4.934  11.112
 3446DOPC   GL140611  13.339   4.904  11.442
 3446DOPC   GL240612  13.039   5.054  11.522
 3446DOPC   C1A40613  13.299   4.694  11.842
 3446DOPC   D2A40614  13.169   4.394  12.152
 3446DOPC   C3A40615  12.799   4.314  12.402
 3446DOPC   C4A40616  12.539   4.514  12.492
 3446DOPC   C1B40617  13.089   5.534  11.682
 3446DOPC   D2B40618  12.969   5.804  11.972
 3446DOPC   C3B40619  13.189   6.184  12.102
 3446DOPC   C4B40620  13.379   6.584  12.382
 3447DOPC   NC340621   9.399  15.334  15.002
 3447DOPC   PO440622   9.109  15.054  14.852
 3447DOPC   GL140623   8.809  14.824  14.492
 3447DOPC   GL240624   8.409  14.774  14.612
 3447DOPC   C1A40625   8.799  14.734  14.062
 3447DOPC   D2A40626   8.729  14.964  13.602
 3447DOPC   C3A40627   8.499  15.134  13.252
 3447DOPC   C4A40628   8.299  15.024  12.942
 3447DOPC   C1B40629   8.329  14.684  14.222
 3447DOPC   D2B40630   8.179  14.514  13.822
 3447DOPC   C3B40631   8.229  14.164  13.642
 3447DOPC   C4B40632   8.099  14.014  13.292
 3448DOPC   NC340633  13.269  14.424  14.732
 3448DOPC   PO440634  12.869  14.224  14.412
 3448DOPC   GL140635  12.759  14.404  13.942
 3448DOPC   GL240636  13.089  14.434  13.872
 3448DOPC   C1A40637  12.609  14.834  13.692
 3448DOPC   D2A40638  12.479  15.314  13.692
 3448DOPC   C3A40639  12.129  15.324  13.402
 3448DOPC   C4A40640  12.099  15.234  13.002
 3448DOPC   C1B40641  12.929  14.474  13.432
 3448DOPC   D2B40642  12.579  14.544  13.092
 3448DOPC   C3B40643  12.259  14.344  12.902
 3448DOPC   C4B40644  11.979  14.104  13.172
 3449DOPC   NC340645  25.069  20.724  15.702
 3449DOPC   PO440646  25.599  20.874  15.712
 3449DOPC   GL140647  25.489  20.744  15.222
 3449DOPC   GL240648  25.109  20.784  15.192
 3449DOPC   C1A40649  25.329  20.494  14.842
 3449DOPC   D2A40650  25.109  20.164  14.632
 3449DOPC   C3A40651  24.699  20.114  14.402
 3449DOPC   C4A40652  24.589  20.394  14.162
 3449DOPC   C1B40653  25.019  20.934  14.832
 3449DOPC   D2B40654  25.059  20.904  14.372
 3449DOPC   C3B40655  25.079  20.454  14.162
 3449DOPC   C4B40656  25.199  20.344  13.682
 3450DOPC   NC340657   5.039  11.644  11.102
 3450DOPC   PO440658   5.309  12.034  11.022
 3450DOPC   GL140659   5.119  12.044  11.482
 3450DOPC   GL240660   5.269  11.754  11.612
 3450DOPC   C1A40661   5.289  12.184  11.912
 3450DOPC   D2A40662   5.659  12.244  12.202
 3450DOPC   C3A40663   5.649  12.424  12.512
 3450DOPC   C4A40664   5.349  12.524  12.812
 3450DOPC   C1B40665   5.259  11.684  12.112
 3450DOPC   D2B40666   5.229  12.014  12.402
 3450DOPC   C3B40667   4.899  12.074  12.612
 3450DOPC   C4B40668   5.009  12.264  13.032
 3451DOPC   NC340669   3.739  15.394  11.402
 3451DOPC   PO440670   3.319  15.564  11.462
 3451DOPC   GL140671   3.359  15.254  11.862
 3451DOPC   GL240672   3.059  15.194  12.022
 3451DOPC   C1A40673   3.529  15.174  12.272
 3451DOPC   D2A40674   3.719  15.414  12.462
 3451DOPC   C3A40675   3.619  15.234  12.832
 3451DOPC   C4A40676   3.939  15.144  13.042
 3451DOPC   C1B40677   3.099  14.994  12.422
 3451DOPC   D2B40678   3.409  14.844  12.602
 3451DOPC   C3B40679   3.699  14.644  12.232
 3451DOPC   C4B40680   3.899  14.214  12.112
 3452DOPC   NC340681   3.969   6.764  11.582
 3452DOPC   PO440682   4.249   6.364  11.482
 3452DOPC   GL140683   4.269   6.394  11.912
 3452DOPC   GL240684   4.589   6.384  11.972
 3452DOPC   C1A40685   4.139   6.294  12.282
 3452DOPC   D2A40686   4.019   6.044  12.662
 3452DOPC   C3A40687   4.269   5.864  12.982
 3452DOPC   C4A40688   4.649   5.784  13.062
 3452DOPC   C1B40689   4.609   6.184  12.332
 3452DOPC   D2B40690   4.659   6.184  12.772
 3452DOPC   C3B40691   4.199   6.374  12.962
 3452DOPC   C4B40692   3.759   6.564  12.732
 3453DOPC   NC340693  23.389   6.364  11.842
 3453DOPC   PO440694  23.719   6.484  12.142
 3453DOPC   GL140695  24.089   6.444  12.372
 3453DOPC   GL240696  24.359   6.144  12.352
 3453DOPC   C1A40697  24.379   6.614  12.762
 3453DOPC   D2A40698  24.389   6.764  13.172
 3453DOPC   C3A40699  24.929   6.604  13.292
 3453DOPC   C4A40700  25.219   6.564  13.562
 3453DOPC   C1B40701  24.239   6.154  12.782
 3453DOPC   D2B40702  24.119   5.884  13.072
 3453DOPC   C3B40703  24.319   5.764  13.392
 3453DOPC   C4B40704  24.099   5.484  13.642
 3454DOPC   NC340705   9.259  16.374  11.092
 3454DOPC   PO440706   9.319  15.944  11.282
 3454DOPC   GL140707   9.349  16.204  11.672
 3454DOPC   GL240708   9.549  16.454  11.742
 3454DOPC   C1A40709   9.469  15.904  11.962
 3454DOPC   D2A40710   9.619  15.814  12.352
 3454DOPC   C3A40711   9.869  15.774  12.672
 3454DOPC   C4A40712  10.059  15.434  12.832
 3454DOPC   C1B40713   9.779  16.394  12.162
 3454DOPC   D2B40714  10.049  16.114  12.302
 3454DOPC   C3B40715  10.289  16.274  12.522
 3454DOPC   C4B40716  10.159  16.224  12.932
 3455DOPC   NC340717  19.189   5.704  15.262
 3455DOPC   PO440718  19.169   6.094  15.112
 3455DOPC   GL140719  19.239   6.164  14.732
 3455DOPC   GL240720  19.589   6.304  14.862
 3455DOPC   C1A40721  18.839   6.074  14.432
 3455DOPC   D2A40722  18.789   6.054  14.032
 3455DOPC   C3A40723  18.959   5.724  13.812
 3455DOPC   C4A40724  19.239   5.344  13.772
 3455DOPC   C1B40725  19.659   6.594  14.602
 3455DOPC   D2B40726  19.609   6.574  14.202
 3455DOPC   C3B40727  19.339   6.764  13.902
 3455DOPC   C4B40728  19.279   6.754  13.512
 3456DOPC   NC340729  14.349  24.791  11.142
 3456DOPC   PO440730  14.509  24.851  11.552
 3456DOPC   GL140731  14.379  24.991  11.872
 3456DOPC   GL240732  14.379  25.351  11.902
 3456DOPC   C1A40733  14.249  25.061  12.312
 3456DOPC   D2A40734  14.399  25.071  12.752
 3456DOPC   C3A40735  14.449  24.971  13.232
 3456DOPC   C4A40736  14.679  24.851  13.642
 3456DOPC   C1B40737  14.709  25.261  12.322
 3456DOPC   D2B40738  15.209  25.151  12.372
 3456DOPC   C3B40739  15.429  25.251  12.732
 3456DOPC   C4B40740  15.479  25.291  13.222
 3457DOPC   NC340741  10.639   2.524  10.482
 3457DOPC   PO440742  10.969   2.194  10.422
 3457DOPC   GL140743  11.019   2.434  10.812
 3457DOPC   GL240744  11.279   2.504  10.812
 3457DOPC   C1A40745  10.919   2.784  11.162
 3457DOPC   D2A40746  10.599   2.934  11.482
 3457DOPC   C3A40747  10.619   2.874  11.892
 3457DOPC   C4A40748  10.709   2.614  12.152
 3457DOPC   C1B40749  11.489   2.274  11.022
 3457DOPC   D2B40750  11.499   1.914  11.252
 3457DOPC   C3B40751  11.269   1.874  11.622
 3457DOPC   C4B40752  11.149   1.534  11.762
 3458DOPC   NC340753   4.159  13.884  11.202
 3458DOPC   PO440754   4.399  14.314  11.352
 3458DOPC   GL140755   4.399  14.024  11.742
 3458DOPC   GL240756   4.749  13.944  11.852
 3458DOPC   C1A40757   4.329  13.924  12.132
 3458DOPC   D2A40758   4.499  14.054  12.462
 3458DOPC   C3A40759   4.469  13.894  12.822
 3458DOPC   C4A40760   4.279  13.634  13.212
 3458DOPC   C1B40761   4.839  13.724  12.312
 3458DOPC   D2B40762   4.849  13.434  12.572
 3458DOPC   C3B40763   4.719  13.004  12.612
 3458DOPC   C4B40764   4.769  12.614  12.762
 3459DOPC   NC340765  23.569   1.944  16.022
 3459DOPC   PO440766  23.749   2.014  15.562
 3459DOPC   GL140767  23.679   2.084  15.202
 3459DOPC   GL240768  23.409   1.884  15.182
 3459DOPC   C1A40769  23.849   2.294  14.872
 3459DOPC   D2A40770  23.729   2.504  14.392
 3459DOPC   C3A40771  23.399   2.334  14.132
 3459DOPC   C4A40772  23.239   2.594  13.892
 3459DOPC   C1B40773  23.039   1.844  14.902
 3459DOPC   D2B40774  22.989   2.034  14.462
 3459DOPC   C3B40775  22.999   2.504  14.582
 3459DOPC   C4B40776  22.969   2.884  14.812
 3460DOPC   NC340777  12.759   2.784  10.792
 3460DOPC   PO440778  12.709   3.344  10.882
 3460DOPC   GL140779  12.579   3.274  11.242
 3460DOPC   GL240780  12.449   3.584  11.352
 3460DOPC   C1A40781  12.459   3.144  11.602
 3460DOPC   D2A40782  12.139   3.054  11.982
 3460DOPC   C3A40783  12.169   2.814  12.312
 3460DOPC   C4A40784  12.039   2.524  12.642
 3460DOPC   C1B40785  12.209   3.564  11.652
 3460DOPC   D2B40786  12.109   3.624  12.062
 3460DOPC   C3B40787  11.819   3.424  12.192
 3460DOPC   C4B40788  11.429   3.304  12.492
 3461DOPC   NC340789  14.689   3.904  11.092
 3461DOPC   PO440790  14.509   3.514  11.202
 3461DOPC   GL140791  14.399   3.574  11.582
 3461DOPC   GL240792  14.039   3.664  11.442
 3461DOPC   C1A40793  14.309   3.874  11.782
 3461DOPC   D2A40794  13.949   4.004  11.872
 3461DOPC   C3A40795  13.889   4.324  12.072
 3461DOPC   C4A40796  13.759   4.514  12.382
 3461DOPC   C1B40797  13.939   3.504  11.802
 3461DOPC   D2B40798  13.539   3.314  12.142
 3461DOPC   C3B40799  13.079   3.534  12.282
 3461DOPC   C4B40800  13.139   3.864  12.542
 3462DOPC   NC340801  19.089  17.934  11.552
 3462DOPC   PO440802  18.849  18.214  11.732
 3462DOPC   GL140803  18.709  18.374  12.142
 3462DOPC   GL240804  18.909  18.564  12.362
 3462DOPC   C1A40805  18.379  18.244  12.472
 3462DOPC   D2A40806  18.269  18.044  12.852
 3462DOPC   C3A40807  18.589  18.114  13.192
 3462DOPC   C4A40808  19.019  18.304  13.242
 3462DOPC   C1B40809  18.729  18.544  12.732
 3462DOPC   D2B40810  18.309  18.654  13.082
 3462DOPC   C3B40811  18.349  18.404  13.432
 3462DOPC   C4B40812  18.319  18.364  13.862
 3463DOPC   NC340813  17.729   4.454  11.082
 3463DOPC   PO440814  17.519   4.074  11.142
 3463DOPC   GL140815  17.519   4.184  11.622
 3463DOPC   GL240816  17.409   3.864  11.872
 3463DOPC   C1A40817  17.759   4.454  12.042
 3463DOPC   D2A40818  18.099   4.324  12.312
 3463DOPC   C3A40819  18.169   4.504  12.742
 3463DOPC   C4A40820  18.479   4.704  12.972
 3463DOPC   C1B40821  17.149   3.774  12.182
 3463DOPC   D2B40822  17.139   3.674  12.572
 3463DOPC   C3B40823  16.839   3.764  12.802
 3463DOPC   C4B40824  16.299   3.834  12.882
 3464DOPC   NC340825   9.759  22.031  11.292
 3464DOPC   PO440826  10.169  21.701  11.272
 3464DOPC   GL140827   9.929  21.621  11.632
 3464DOPC   GL240828  10.109  21.391  11.822
 3464DOPC   C1A40829   9.739  21.621  12.082
 3464DOPC   D2A40830   9.249  21.631  12.122
 3464DOPC   C3A40831   8.969  21.561  12.252
 3464DOPC   C4A40832   8.839  21.274  12.582
 3464DOPC   C1B40833  10.009  21.124  12.212
 3464DOPC   D2B40834  10.269  21.034  12.502
 3464DOPC   C3B40835  10.259  21.134  12.932
 3464DOPC   C4B40836  10.289  21.174  13.482
 3465DOPC   NC340837   9.499  19.514  11.092
 3465DOPC   PO440838   9.159  19.164  11.312
 3465DOPC   GL140839   9.039  18.994  11.712
 3465DOPC   GL240840   8.609  18.944  11.782
 3465DOPC   C1A40841   9.169  19.284  12.102
 3465DOPC   D2A40842   9.119  19.514  12.422
 3465DOPC   C3A40843   8.899  19.614  12.762
 3465DOPC   C4A40844   9.019  19.694  13.172
 3465DOPC   C1B40845   8.769  18.754  12.182
 3465DOPC   D2B40846   8.999  18.874  12.532
 3465DOPC   C3B40847   9.179  19.104  12.892
 3465DOPC   C4B40848   9.409  19.464  12.962
 3466DOPC   NC340849  19.929   1.514  11.972
 3466DOPC   PO440850  20.239   1.674  11.822
 3466DOPC   GL140851  20.309   1.754  12.262
 3466DOPC   GL240852  20.259   2.034  12.232
 3466DOPC   C1A40853  20.349   1.784  12.732
 3466DOPC   D2A40854  20.309   1.954  13.172
 3466DOPC   C3A40855  19.899   2.064  13.262
 3466DOPC   C4A40856  19.749   2.274  13.602
 3466DOPC   C1B40857  20.539   2.234  12.662
 3466DOPC   D2B40858  20.629   2.604  12.822
 3466DOPC   C3B40859  20.339   2.934  13.032
 3466DOPC   C4B40860  20.059   3.154  13.322
 3467DOPC   NC340861  16.639  14.794  10.952
 3467DOPC   PO440862  16.239  14.774  10.832
 3467DOPC   GL140863  16.249  14.764  11.302
 3467DOPC   GL240864  16.319  14.924  11.542
 3467DOPC   C1A40865  16.019  14.624  11.772
 3467DOPC   D2A40866  15.949  14.654  12.292
 3467DOPC   C3A40867  15.739  15.104  12.412
 3467DOPC   C4A40868  15.959  15.464  12.422
 3467DOPC   C1B40869  16.199  15.084  12.062
 3467DOPC   D2B40870  16.279  14.984  12.492
 3467DOPC   C3B40871  16.449  14.644  12.722
 3467DOPC   C4B40872  16.189  14.664  13.152
 3468DOPC   NC340873  12.279  10.764  14.022
 3468DOPC   PO440874  12.699  10.584  13.922
 3468DOPC   GL140875  12.959  10.704  13.632
 3468DOPC   GL240876  12.899  10.964  13.512
 3468DOPC   C1A40877  13.189  10.484  13.452
 3468DOPC   D2A40878  13.129  10.474  12.972
 3468DOPC   C3A40879  13.419  10.764  12.822
 3468DOPC   C4A40880  13.859  10.964  12.702
 3468DOPC   C1B40881  13.339  11.004  13.462
 3468DOPC   D2B40882  13.799  11.064  13.182
 3468DOPC   C3B40883  13.679  11.414  12.802
 3468DOPC   C4B40884  13.209  11.614  12.662
 3469DOPC   NC340885   8.129  18.124  10.942
 3469DOPC   PO440886   8.049  17.784  11.232
 3469DOPC   GL140887   8.169  17.714  11.662
 3469DOPC   GL240888   7.889  17.554  11.862
 3469DOPC   C1A40889   8.359  17.884  12.002
 3469DOPC   D2A40890   8.519  17.834  12.402
 3469DOPC   C3A40891   8.249  17.694  12.852
 3469DOPC   C4A40892   8.229  17.594  13.222
 3469DOPC   C1B40893   7.769  17.524  12.342
 3469DOPC   D2B40894   7.379  17.314  12.402
 3469DOPC   C3B40895   7.069  17.564  12.492
 3469DOPC   C4B40896   6.899  18.074  12.672
 3470DOPC   NC340897  24.379  18.224  12.502
 3470DOPC   PO440898  24.539  17.734  12.532
 3470DOPC   GL140899  24.559  17.694  12.972
 3470DOPC   GL240900  24.469  18.034  12.932
 3470DOPC   C1A40901  24.259  17.784  13.352
 3470DOPC   D2A40902  24.199  18.124  13.572
 3470DOPC   C3A40903  24.059  17.844  13.962
 3470DOPC   C4A40904  24.209  17.954  14.302
 3470DOPC   C1B40905  24.639  18.024  13.322
 3470DOPC   D2B40906  24.899  18.014  13.662
 3470DOPC   C3B40907  24.999  17.674  14.162
 3470DOPC   C4B40908  24.749  17.624  14.502
 3471DOPC   NC340909   1.239  24.741   8.242
 3471DOPC   PO440910   1.109  24.591   7.802
 3471DOPC   GL140911   1.019  24.501   7.292
 3471DOPC   GL240912   0.819  24.301   7.302
 3471DOPC   C1A40913   1.319  24.531   6.862
 3471DOPC   D2A40914   1.559  24.811   6.492
 3471DOPC   C3A40915   1.889  24.591   6.232
 3471DOPC   C4A40916   1.919  24.281   5.972
 3471DOPC   C1B40917   0.929  24.181   6.882
 3471DOPC   D2B40918   0.669  23.951   6.552
 3471DOPC   C3B40919   0.609  23.931   6.082
 3471DOPC   C4B40920   0.539  24.021   5.662
 3472DOPC   NC340921   3.169  12.414  10.932
 3472DOPC   PO440922   2.959  12.064  11.092
 3472DOPC   GL140923   2.919  12.144  11.572
 3472DOPC   GL240924   2.929  12.394  11.572
 3472DOPC   C1A40925   2.569  12.274  11.922
 3472DOPC   D2A40926   2.379  12.404  12.362
 3472DOPC   C3A40927   2.699  12.374  12.702
 3472DOPC   C4A40928   2.899  12.434  12.982
 3472DOPC   C1B40929   3.009  12.544  11.952
 3472DOPC   D2B40930   2.929  12.674  12.342
 3472DOPC   C3B40931   3.209  12.544  12.642
 3472DOPC   C4B40932   3.489  12.444  12.982
 3473DOPC   NC340933   5.049   2.134  11.132
 3473DOPC   PO440934   5.389   2.584  11.162
 3473DOPC   GL140935   5.529   2.784  11.592
 3473DOPC   GL240936   5.869   2.654  11.822
 3473DOPC   C1A40937   5.469   2.864  12.022
 3473DOPC   D2A40938   5.489   2.834  12.452
 3473DOPC   C3A40939   5.109   2.574  12.722
 3473DOPC   C4A40940   4.669   2.334  12.842
 3473DOPC   C1B40941   6.039   2.764  12.222
 3473DOPC   D2B40942   6.039   2.624  12.652
 3473DOPC   C3B40943   5.889   2.764  12.892
 3473DOPC   C4B40944   5.499   2.604  13.192
 3474DOPC   NC340945  26.036  14.174  11.862
 3474DOPC   PO440946  25.639  13.934  11.742
 3474DOPC   GL140947  25.399  13.794  12.072
 3474DOPC   GL240948  25.519  13.434  11.892
 3474DOPC   C1A40949  25.419  13.754  12.412
 3474DOPC   D2A40950  25.279  13.484  12.742
 3474DOPC   C3A40951  25.369  13.354  13.132
 3474DOPC   C4A40952  25.379  12.964  13.392
 3474DOPC   C1B40953  25.439  13.234  12.312
 3474DOPC   D2B40954  25.049  13.014  12.422
 3474DOPC   C3B40955  25.169  13.024  12.872
 3474DOPC   C4B40956  25.639  12.944  12.882
 3475DOPC   NC340957  10.549  10.124  10.422
 3475DOPC   PO440958  10.209   9.894  10.642
 3475DOPC   GL140959  10.289   9.924  11.062
 3475DOPC   GL240960  10.079  10.114  11.382
 3475DOPC   C1A40961  10.529  10.294  11.432
 3475DOPC   D2A40962  10.749  10.474  11.772
 3475DOPC   C3A40963  10.799  10.894  12.062
 3475DOPC   C4A40964  11.179  11.134  12.012
 3475DOPC   C1B40965  10.159  10.134  11.782
 3475DOPC   D2B40966  10.319  10.174  12.212
 3475DOPC   C3B40967  10.529   9.734  12.392
 3475DOPC   C4B40968  10.589   9.324  12.302
 3476DOPC   NC340969  13.769  17.164  10.872
 3476DOPC   PO440970  14.189  17.304  10.822
 3476DOPC   GL140971  14.229  17.404  11.332
 3476DOPC   GL240972  14.249  17.724  11.402
 3476DOPC   C1A40973  14.149  17.374  11.752
 3476DOPC   D2A40974  13.899  17.064  12.042
 3476DOPC   C3A40975  13.759  16.914  12.442
 3476DOPC   C4A40976  13.869  16.734  12.862
 3476DOPC   C1B40977  14.029  17.874  11.712
 3476DOPC   D2B40978  13.889  17.764  12.092
 3476DOPC   C3B40979  14.199  17.974  12.372
 3476DOPC   C4B40980  14.499  18.154  12.172
 3477DOPC   NC340981   1.149   4.574  11.232
 3477DOPC   PO440982   1.459   4.784  11.452
 3477DOPC   GL140983   1.419   4.834  11.822
 3477DOPC   GL240984   1.589   4.564  11.982
 3477DOPC   C1A40985   1.149   4.864  12.142
 3477DOPC   D2A40986   1.109   4.814  12.442
 3477DOPC   C3A40987   1.109   4.584  12.742
 3477DOPC   C4A40988   0.969   4.574  13.072
 3477DOPC   C1B40989   1.599   5.004  12.262
 3477DOPC   D2B40990   1.619   5.064  12.662
 3477DOPC   C3B40991   1.549   4.694  12.942
 3477DOPC   C4B40992   1.829   4.464  13.182
 3478DOPC   NC340993   5.849  13.414  10.922
 3478DOPC   PO440994   6.259  13.584  11.102
 3478DOPC   GL140995   6.489  13.724  11.502
 3478DOPC   GL240996   6.289  13.514  11.772
 3478DOPC   C1A40997   6.699  14.004  11.782
 3478DOPC   D2A40998   6.629  14.324  12.072
 3478DOPC   C3A40999   6.739  14.334  12.532
 3478DOPC   C4A41000   6.529  14.234  12.852
 3478DOPC   C1B41001   6.559  13.114  11.892
 3478DOPC   D2B41002   6.909  13.094  12.202
 3478DOPC   C3B41003   7.219  13.434  12.092
 3478DOPC   C4B41004   7.269  13.764  12.512
 3479DOPC   NC341005  24.649  22.441  11.942
 3479DOPC   PO441006  24.749  22.101  12.132
 3479DOPC   GL141007  24.959  22.011  12.472
 3479DOPC   GL241008  24.809  22.251  12.622
 3479DOPC   C1A41009  24.939  21.761  12.862
 3479DOPC   D2A41010  24.849  21.561  13.272
 3479DOPC   C3A41011  25.009  21.631  13.722
 3479DOPC   C4A41012  25.469  21.821  13.702
 3479DOPC   C1B41013  24.899  22.531  12.962
 3479DOPC   D2B41014  25.019  22.561  13.322
 3479DOPC   C3B41015  24.779  22.711  13.652
 3479DOPC   C4B41016  24.569  22.911  13.932
 3480DOPC   NC341017  24.989   3.734  11.742
 3480DOPC   PO441018  25.349   3.484  11.642
 3480DOPC   GL141019  25.329   3.604  12.072
 3480DOPC   GL241020  25.139   3.424  12.312
 3480DOPC   C1A41021  25.279   3.854  12.492
 3480DOPC   D2A41022  25.369   3.854  12.862
 3480DOPC   C3A41023  25.129   4.104  13.252
 3480DOPC   C4A41024  25.239   4.124  13.712
 3480DOPC   C1B41025  24.899   3.564  12.732
 3480DOPC   D2B41026  24.569   3.434  13.032
 3480DOPC   C3B41027  24.709   3.194  13.402
 3480DOPC   C4B41028  24.599   3.194  13.832
 3481DOPC   NC341029  20.949  24.331  12.082
 3481DOPC   PO441030  21.189  24.291  12.432
 3481DOPC   GL141031  21.359  24.471  12.832
 3481DOPC   GL241032  21.509  24.761  12.792
 3481DOPC   C1A41033  21.169  24.301  13.262
 3481DOPC   D2A41034  20.919  24.241  13.742
 3481DOPC   C3A41035  20.669  23.851  13.742
 3481DOPC   C4A41036  20.499  23.551  13.492
 3481DOPC   C1B41037  21.929  24.701  13.052
 3481DOPC   D2B41038  22.309  24.551  13.212
 3481DOPC   C3B41039  22.669  24.761  13.362
 3481DOPC   C4B41040  22.949  25.051  13.552
 3482DOPC   NC341041   6.679  11.894  11.202
 3482DOPC   PO441042   6.679  12.384  11.282
 3482DOPC   GL141043   6.929  12.514  11.622
 3482DOPC   GL241044   6.779  12.664  11.732
 3482DOPC   C1A41045   7.109  12.234  11.872
 3482DOPC   D2A41046   6.959  11.924  12.152
 3482DOPC   C3A41047   7.149  11.854  12.472
 3482DOPC   C4A41048   6.929  11.754  12.892
 3482DOPC   C1B41049   6.939  12.604  12.142
 3482DOPC   D2B41050   6.989  12.734  12.552
 3482DOPC   C3B41051   7.299  13.174  12.572
 3482DOPC   C4B41052   7.519  13.484  12.812
 3483DOPC   NC341053  14.919   4.804  10.892
 3483DOPC   PO441054  15.309   4.894  10.812
 3483DOPC   GL141055  15.109   5.134  11.242
 3483DOPC   GL241056  15.099   5.484  11.242
 3483DOPC   C1A41057  14.939   4.954  11.582
 3483DOPC   D2A41058  14.699   4.744  11.782
 3483DOPC   C3A41059  14.619   5.004  12.172
 3483DOPC   C4A41060  14.739   5.174  12.552
 3483DOPC   C1B41061  15.079   5.414  11.762
 3483DOPC   D2B41062  15.079   5.254  12.162
 3483DOPC   C3B41063  15.049   4.774  12.182
 3483DOPC   C4B41064  14.769   4.524  12.292
 3484DOPC   NC341065   6.769   8.464  10.732
 3484DOPC   PO441066   6.889   8.044  10.892
 3484DOPC   GL141067   7.089   8.024  11.272
 3484DOPC   GL241068   7.209   7.844  11.392
 3484DOPC   C1A41069   7.319   8.304  11.512
 3484DOPC   D2A41070   7.289   8.714  11.662
 3484DOPC   C3A41071   7.369   8.924  12.062
 3484DOPC   C4A41072   7.349   9.364  12.262
 3484DOPC   C1B41073   7.439   7.834  11.732
 3484DOPC   D2B41074   7.779   7.864  12.112
 3484DOPC   C3B41075   7.699   8.184  12.432
 3484DOPC   C4B41076   7.889   8.314  12.872
 3485DOPC   NC341077  22.859  11.684  11.362
 3485DOPC   PO441078  23.139  11.504  11.532
 3485DOPC   GL141079  22.939  11.554  11.972
 3485DOPC   GL241080  23.029  11.724  12.262
 3485DOPC   C1A41081  22.599  11.284  12.282
 3485DOPC   D2A41082  22.289  11.034  12.492
 3485DOPC   C3A41083  22.129  11.034  12.972
 3485DOPC   C4A41084  22.069  11.084  13.392
 3485DOPC   C1B41085  22.869  11.604  12.632
 3485DOPC   D2B41086  22.609  11.834  12.962
 3485DOPC   C3B41087  22.789  11.984  13.352
 3485DOPC   C4B41088  22.819  11.814  13.772
 3486DOPC   NC341089  14.579  19.624  15.172
 3486DOPC   PO441090  14.979  19.344  15.012
 3486DOPC   GL141091  15.209  19.334  14.692
 3486DOPC   GL241092  15.439  19.644  14.552
 3486DOPC   C1A41093  15.339  19.254  14.242
 3486DOPC   D2A41094  15.469  19.114  13.862
 3486DOPC   C3A41095  15.399  18.794  13.722
 3486DOPC   C4A41096  15.329  18.384  13.832
 3486DOPC   C1B41097  15.909  19.744  14.712
 3486DOPC   D2B41098  16.249  19.814  14.952
 3486DOPC   C3B41099  16.509  20.114  14.812
 3486DOPC   C4B41100  16.789  20.294  14.642
 3487DOPC   NC341101  -0.319   8.914  10.912
 3487DOPC   PO441102  -0.129   9.014  11.382
 3487DOPC   GL141103   0.069   9.094  11.812
 3487DOPC   GL241104   0.239   8.914  12.002
 3487DOPC   C1A41105   0.149   9.494  12.052
 3487DOPC   D2A41106   0.459   9.914  12.112
 3487DOPC   C3A41107   0.469  10.174  12.422
 3487DOPC   C4A41108   0.369  10.194  12.862
 3487DOPC   C1B41109   0.289   8.984  12.482
 3487DOPC   D2B41110   0.409   9.144  12.852
 3487DOPC   C3B41111   0.409   9.514  13.002
 3487DOPC   C4B41112   0.589   9.824  13.232
 3488DOPC   NC341113  22.509   8.564  15.232
 3488DOPC   PO441114  22.459   8.164  15.222
 3488DOPC   GL141115  22.409   7.944  14.822
 3488DOPC   GL241116  22.199   8.034  14.732
 3488DOPC   C1A41117  22.479   7.704  14.422
 3488DOPC   D2A41118  22.759   7.734  14.102
 3488DOPC   C3A41119  22.809   7.714  13.612
 3488DOPC   C4A41120  22.919   7.894  13.212
 3488DOPC   C1B41121  21.999   8.334  14.432
 3488DOPC   D2B41122  21.849   8.504  14.002
 3488DOPC   C3B41123  21.449   8.164  13.862
 3488DOPC   C4B41124  21.339   7.964  13.462
 3489DOPC   NC341125  11.439  23.661  11.802
 3489DOPC   PO441126  11.319  24.021  11.712
 3489DOPC   GL141127  10.859  24.221  11.852
 3489DOPC   GL241128  10.749  24.421  11.602
 3489DOPC   C1A41129  10.669  24.341  12.172
 3489DOPC   D2A41130  10.449  24.721  12.322
 3489DOPC   C3A41131  10.309  25.041  12.582
 3489DOPC   C4A41132  10.349  25.111  13.032
 3489DOPC   C1B41133  10.349  24.481  11.822
 3489DOPC   D2B41134  10.029  24.391  12.032
 3489DOPC   C3B41135   9.969  24.001  12.102
 3489DOPC   C4B41136   9.779  23.681  12.042
 3490DOPC   NC341137   7.049  24.091  15.032
 3490DOPC   PO441138   6.989  23.801  15.262
 3490DOPC   GL141139   7.259  23.651  14.792
 3490DOPC   GL241140   6.909  23.631  14.772
 3490DOPC   C1A41141   7.369  23.311  14.432
 3490DOPC   D2A41142   7.619  23.141  14.002
 3490DOPC   C3A41143   7.899  22.971  13.692
 3490DOPC   C4A41144   7.889  22.631  13.332
 3490DOPC   C1B41145   6.919  23.701  14.352
 3490DOPC   D2B41146   6.959  23.461  14.062
 3490DOPC   C3B41147   6.689  23.481  13.632
 3490DOPC   C4B41148   6.949  23.181  13.352
 3491DOPC   NC341149   9.819   5.294  10.752
 3491DOPC   PO441150  10.269   5.244  10.562
 3491DOPC   GL141151  10.549   5.114  10.822
 3491DOPC   GL241152  10.359   4.954  11.052
 3491DOPC   C1A41153  10.749   5.224  11.232
 3491DOPC   D2A41154  11.179   5.404  11.212
 3491DOPC   C3A41155  11.489   5.744  11.292
 3491DOPC   C4A41156  11.489   6.164  11.472
 3491DOPC   C1B41157  10.299   5.034  11.512
 3491DOPC   D2B41158  10.159   4.984  11.922
 3491DOPC   C3B41159   9.789   5.124  12.152
 3491DOPC   C4B41160   9.489   5.174  12.472
 3492DOPC   NC341161  20.569   3.274  15.992
 3492DOPC   PO441162  20.679   3.074  15.662
 3492DOPC   GL141163  20.679   3.524  15.352
 3492DOPC   GL241164  21.019   3.704  15.412
 3492DOPC   C1A41165  20.619   3.494  14.952
 3492DOPC   D2A41166  20.519   3.634  14.452
 3492DOPC   C3A41167  20.319   3.484  14.222
 3492DOPC   C4A41168  20.279   3.014  14.352
 3492DOPC   C1B41169  21.099   3.594  15.002
 3492DOPC   D2B41170  20.979   3.754  14.582
 3492DOPC   C3B41171  20.929   3.444  14.262
 3492DOPC   C4B41172  21.169   3.214  14.042
 3493DOPC   NC341173  19.679  21.671  12.352
 3493DOPC   PO441174  19.529  21.234  12.242
 3493DOPC   GL141175  19.219  21.354  12.622
 3493DOPC   GL241176  19.199  21.561  12.742
 3493DOPC   C1A41177  19.169  21.124  12.992
 3493DOPC   D2A41178  18.869  20.994  13.292
 3493DOPC   C3A41179  18.859  21.014  13.632
 3493DOPC   C4A41180  18.859  20.984  14.082
 3493DOPC   C1B41181  19.409  21.741  13.152
 3493DOPC   D2B41182  19.339  21.461  13.492
 3493DOPC   C3B41183  18.989  21.451  13.492
 3493DOPC   C4B41184  18.599  21.741  13.362
 3494DOPC   NC341185   9.589   8.124  10.772
 3494DOPC   PO441186   9.629   7.724  10.982
 3494DOPC   GL141187   9.489   8.114  11.322
 3494DOPC   GL241188   9.179   8.264  11.402
 3494DOPC   C1A41189   9.589   8.244  11.742
 3494DOPC   D2A41190   9.759   8.104  12.192
 3494DOPC   C3A41191  10.179   7.964  12.382
 3494DOPC   C4A41192  10.659   7.994  12.302
 3494DOPC   C1B41193   9.269   8.644  11.592
 3494DOPC   D2B41194   9.559   8.814  11.902
 3494DOPC   C3B41195   9.559   8.824  12.382
 3494DOPC   C4B41196   9.829   8.874  12.842
 3495DOPC   NC341197   1.289  21.024  15.542
 3495DOPC   PO441198   1.609  21.224  15.382
 3495DOPC   GL141199   1.639  21.164  14.932
 3495DOPC   GL241200   1.709  20.864  14.832
 3495DOPC   C1A41201   1.289  20.954  14.612
 3495DOPC   D2A41202   0.949  20.754  14.412
 3495DOPC   C3A41203   1.119  20.554  14.032
 3495DOPC   C4A41204   1.089  20.494  13.662
 3495DOPC   C1B41205   1.779  21.034  14.402
 3495DOPC   D2B41206   1.699  20.984  13.952
 3495DOPC   C3B41207   1.549  20.604  13.742
 3495DOPC   C4B41208   1.509  20.214  13.452
 3496DOPC   NC341209   6.199  16.264  11.242
 3496DOPC   PO441210   5.789  16.414  11.022
 3496DOPC   GL141211   5.629  16.524  11.492
 3496DOPC   GL241212   5.939  16.524  11.612
 3496DOPC   C1A41213   5.539  16.374  11.942
 3496DOPC   D2A41214   5.609  16.194  12.342
 3496DOPC   C3A41215   5.489  16.354  12.752
 3496DOPC   C4A41216   5.199  16.344  12.962
 3496DOPC   C1B41217   6.049  16.174  11.932
 3496DOPC   D2B41218   6.129  15.914  12.162
 3496DOPC   C3B41219   6.429  15.654  12.072
 3496DOPC   C4B41220   6.709  15.404  12.042
 3497DOPC   NC341221   7.379  16.644  11.582
 3497DOPC   PO441222   7.739  16.584  11.522
 3497DOPC   GL141223   7.899  16.454  11.922
 3497DOPC   GL241224   8.179  16.304  12.112
 3497DOPC   C1A41225   7.739  16.384  12.392
 3497DOPC   D2A41226   7.529  16.144  12.692
 3497DOPC   C3A41227   7.099  16.184  12.792
 3497DOPC   C4A41228   6.809  15.904  13.072
 3497DOPC   C1B41229   8.109  16.124  12.582
 3497DOPC   D2B41230   7.959  16.204  12.892
 3497DOPC   C3B41231   8.149  16.154  13.352
 3497DOPC   C4B41232   8.359  15.974  13.772
 3498DOPC   NC341233  15.879   0.824  11.882
 3498DOPC   PO441234  15.969   1.224  11.772
 3498DOPC   GL141235  16.099   1.324  12.242
 3498DOPC   GL241236  16.159   1.074  12.432
 3498DOPC   C1A41237  16.019   1.474  12.652
 3498DOPC   D2A41238  16.039   1.594  13.002
 3498DOPC   C3A41239  16.029   1.544  13.392
 3498DOPC   C4A41240  16.359   1.314  13.632
 3498DOPC   C1B41241  16.559   1.234  12.562
 3498DOPC   D2B41242  16.519   1.414  13.002
 3498DOPC   C3B41243  16.649   1.084  13.262
 3498DOPC   C4B41244  16.479   0.794  13.492
 3499DOPC   NC341245  10.149  20.614  10.722
 3499DOPC   PO441246   9.939  20.264  10.902
 3499DOPC   GL141247  10.109  20.184  11.272
 3499DOPC   GL241248  10.369  20.014  11.262
 3499DOPC   C1A41249  10.029  20.404  11.592
 3499DOPC   D2A41250  10.229  20.604  11.902
 3499DOPC   C3A41251   9.989  20.624  12.342
 3499DOPC   C4A41252   9.999  20.714  12.752
 3499DOPC   C1B41253  10.309  19.764  11.632
 3499DOPC   D2B41254  10.079  19.494  12.052
 3499DOPC   C3B41255  10.049  19.234  12.422
 3499DOPC   C4B41256  10.079  18.944  12.682
 3500DOPC   NC341257  11.069   4.254  14.572
 3500DOPC   PO441258  10.739   3.954  14.522
 3500DOPC   GL141259  10.599   3.804  14.192
 3500DOPC   GL241260  10.539   3.604  14.132
 3500DOPC   C1A41261  10.839   3.844  13.762
 3500DOPC   D2A41262  10.949   3.924  13.342
 3500DOPC   C3A41263  11.329   4.114  13.172
 3500DOPC   C4A41264  11.609   4.314  12.872
 3500DOPC   C1B41265  10.269   3.514  13.852
 3500DOPC   D2B41266  10.009   3.744  13.542
 3500DOPC   C3B41267  10.059   3.604  13.152
 3500DOPC   C4B41268  10.189   3.814  12.812
 3501DOPC   NC341269   8.609   9.514  10.762
 3501DOPC   PO441270   8.129   9.364  10.772
 3501DOPC   GL141271   8.059   9.244  11.242
 3501DOPC   GL241272   7.819   9.534  11.262
 3501DOPC   C1A41273   7.999   9.074  11.632
 3501DOPC   D2A41274   7.829   8.814  11.922
 3501DOPC   C3A41275   7.909   8.644  12.332
 3501DOPC   C4A41276   8.209   8.304  12.452
 3501DOPC   C1B41277   8.059   9.654  11.632
 3501DOPC   D2B41278   8.299   9.774  11.972
 3501DOPC   C3B41279   8.099   9.534  12.362
 3501DOPC   C4B41280   8.169   9.094  12.332
 3502DOPC   NC341281  21.759  20.184  11.872
 3502DOPC   PO441282  21.489  19.934  12.142
 3502DOPC   GL141283  21.299  19.954  12.572
 3502DOPC   GL241284  21.459  19.824  12.652
 3502DOPC   C1A41285  21.199  20.314  12.942
 3502DOPC   D2A41286  20.959  20.674  12.972
 3502DOPC   C3A41287  20.989  21.064  13.312
 3502DOPC   C4A41288  20.929  21.451  13.612
 3502DOPC   C1B41289  21.159  19.864  13.092
 3502DOPC   D2B41290  20.739  19.674  13.242
 3502DOPC   C3B41291  20.569  19.604  13.602
 3502DOPC   C4B41292  20.739  19.504  14.072
 3503DOPC   NC341293  19.709  16.064  15.672
 3503DOPC   PO441294  19.499  16.324  15.552
 3503DOPC   GL141295  19.599  16.594  15.352
 3503DOPC   GL241296  19.289  16.814  15.292
 3503DOPC   C1A41297  19.779  16.444  14.922
 3503DOPC   D2A41298  20.009  16.394  14.702
 3503DOPC   C3A41299  20.029  16.024  14.452
 3503DOPC   C4A41300  20.119  15.704  14.222
 3503DOPC   C1B41301  19.309  16.614  14.892
 3503DOPC   D2B41302  19.229  16.474  14.532
 3503DOPC   C3B41303  19.189  16.934  14.312
 3503DOPC   C4B41304  19.119  17.354  14.092
 3504DOPC   NC341305  18.799   2.324  11.752
 3504DOPC   PO441306  18.629   1.944  11.892
 3504DOPC   GL141307  18.639   1.764  12.242
 3504DOPC   GL241308  18.459   1.604  12.472
 3504DOPC   C1A41309  18.929   1.864  12.592
 3504DOPC   D2A41310  19.189   2.164  13.002
 3504DOPC   C3A41311  19.319   2.054  13.382
 3504DOPC   C4A41312  19.109   2.164  13.692
 3504DOPC   C1B41313  18.509   1.834  12.862
 3504DOPC   D2B41314  18.309   1.864  13.262
 3504DOPC   C3B41315  18.489   1.594  13.522
 3504DOPC   C4B41316  18.339   1.454  13.822
 3505DOPC   NC341317   6.279   4.994  14.982
 3505DOPC   PO441318   6.559   5.324  14.802
 3505DOPC   GL141319   6.599   5.424  14.442
 3505DOPC   GL241320   6.439   5.304  14.092
 3505DOPC   C1A41321   6.619   5.754  14.162
 3505DOPC   D2A41322   6.859   5.964  13.782
 3505DOPC   C3A41323   7.129   6.224  13.382
 3505DOPC   C4A41324   6.869   6.044  12.982
 3505DOPC   C1B41325   6.239   5.044  13.822
 3505DOPC   D2B41326   6.009   5.084  13.392
 3505DOPC   C3B41327   6.159   5.234  13.042
 3505DOPC   C4B41328   6.119   5.364  12.592
 3506DOPC   NC341329  24.429  10.414  11.272
 3506DOPC   PO441330  24.639  10.834  11.452
 3506DOPC   GL141331  24.589  10.774  11.932
 3506DOPC   GL241332  24.699  10.434  12.142
 3506DOPC   C1A41333  24.629  10.974  12.292
 3506DOPC   D2A41334  24.619  10.714  12.652
 3506DOPC   C3A41335  24.949  10.464  12.842
 3506DOPC   C4A41336  25.119  10.034  12.792
 3506DOPC   C1B41337  25.129  10.534  12.392
 3506DOPC   D2B41338  25.109  10.944  12.592
 3506DOPC   C3B41339  25.219  10.874  13.032
 3506DOPC   C4B41340  25.359  11.164  13.342
 3507DOPC   NC341341  10.289  19.474  10.522
 3507DOPC   PO441342  10.199  19.084  10.782
 3507DOPC   GL141343  10.169  18.874  11.332
 3507DOPC   GL241344   9.859  18.734  11.482
 3507DOPC   C1A41345  10.029  19.064  11.822
 3507DOPC   D2A41346   9.989  18.804  12.112
 3507DOPC   C3A41347   9.669  18.534  12.062
 3507DOPC   C4A41348   9.209  18.504  11.932
 3507DOPC   C1B41349   9.489  18.884  11.742
 3507DOPC   D2B41350   9.659  19.184  12.082
 3507DOPC   C3B41351   9.519  19.104  12.532
 3507DOPC   C4B41352   9.609  18.864  12.872
 3508DOPC   NC341353  14.919   7.364  10.492
 3508DOPC   PO441354  15.159   7.214  10.862
 3508DOPC   GL141355  15.179   7.384  11.252
 3508DOPC   GL241356  14.989   7.634  11.362
 3508DOPC   C1A41357  15.189   7.404  11.762
 3508DOPC   D2A41358  15.069   7.274  12.222
 3508DOPC   C3A41359  14.929   7.434  12.542
 3508DOPC   C4A41360  14.669   7.394  12.842
 3508DOPC   C1B41361  14.939   7.924  11.712
 3508DOPC   D2B41362  14.709   8.114  12.042
 3508DOPC   C3B41363  14.659   8.544  12.232
 3508DOPC   C4B41364  14.769   8.974  12.052
 3509DOPC   NC341365  16.079  18.794  15.402
 3509DOPC   PO441366  16.129  18.374  15.182
 3509DOPC   GL141367  16.259  18.544  14.892
 3509DOPC   GL241368  16.069  18.794  14.902
 3509DOPC   C1A41369  16.559  18.634  14.592
 3509DOPC   D2A41370  16.849  18.454  14.262
 3509DOPC   C3A41371  16.659  18.014  14.282
 3509DOPC   C4A41372  16.419  17.724  14.232
 3509DOPC   C1B41373  15.999  18.924  14.502
 3509DOPC   D2B41374  16.019  19.004  13.992
 3509DOPC   C3B41375  16.299  18.634  13.802
 3509DOPC   C4B41376  16.759  18.364  13.792
 3510DOPC   NC341377  23.779  12.794  15.582
 3510DOPC   PO441378  23.649  13.214  15.392
 3510DOPC   GL141379  23.779  13.164  15.012
 3510DOPC   GL241380  23.569  13.354  14.822
 3510DOPC   C1A41381  23.919  12.914  14.532
 3510DOPC   D2A41382  23.829  12.574  14.242
 3510DOPC   C3A41383  24.029  12.214  14.252
 3510DOPC   C4A41384  24.449  12.274  14.192
 3510DOPC   C1B41385  23.649  13.424  14.462
 3510DOPC   D2B41386  23.699  13.584  14.142
 3510DOPC   C3B41387  23.479  13.954  14.072
 3510DOPC   C4B41388  23.179  14.074  13.842
 3511DOPC   NC341389  11.689   9.974  10.282
 3511DOPC   PO441390  11.459  10.244  10.682
 3511DOPC   GL141391  11.559  10.464  10.952
 3511DOPC   GL241392  11.919  10.504  10.962
 3511DOPC   C1A41393  11.599  10.444  11.352
 3511DOPC   D2A41394  11.749  10.374  11.742
 3511DOPC   C3A41395  11.759   9.974  11.992
 3511DOPC   C4A41396  11.879   9.754  12.422
 3511DOPC   C1B41397  12.059  10.584  11.392
 3511DOPC   D2B41398  11.959  10.774  11.842
 3511DOPC   C3B41399  11.709  11.164  11.892
 3511DOPC   C4B41400  11.629  11.404  12.132
 3512DOPC   NC341401  10.919  23.611  11.132
 3512DOPC   PO441402  11.089  23.461  11.532
 3512DOPC   GL141403  10.889  23.531  11.872
 3512DOPC   GL241404  10.979  23.741  11.992
 3512DOPC   C1A41405  10.669  23.361  12.282
 3512DOPC   D2A41406  10.639  23.741  12.622
 3512DOPC   C3A41407  10.949  23.701  12.882
 3512DOPC   C4A41408  11.239  23.491  13.142
 3512DOPC   C1B41409  11.149  23.671  12.422
 3512DOPC   D2B41410  11.469  23.501  12.662
 3512DOPC   C3B41411  11.639  23.291  13.022
 3512DOPC   C4B41412  11.929  23.161  13.402
 3513DOPC   NC341413   3.229   5.964  15.132
 3513DOPC   PO441414   2.889   6.034  15.332
 3513DOPC   GL141415   2.799   5.964  14.842
 3513DOPC   GL241416   2.479   5.884  14.792
 3513DOPC   C1A41417   2.909   6.014  14.392
 3513DOPC   D2A41418   3.139   6.114  13.982
 3513DOPC   C3A41419   2.899   6.394  13.662
 3513DOPC   C4A41420   2.659   6.624  13.352
 3513DOPC   C1B41421   2.399   5.954  14.422
 3513DOPC   D2B41422   2.269   5.694  14.032
 3513DOPC   C3B41423   2.529   5.604  13.642
 3513DOPC   C4B41424   2.859   5.444  13.462
 3514DOPC   NC341425  18.559  23.461  15.842
 3514DOPC   PO441426  18.269  23.341  15.962
 3514DOPC   GL141427  18.009  23.121  15.632
 3514DOPC   GL241428  18.259  22.991  15.542
 3514DOPC   C1A41429  17.769  23.221  15.232
 3514DOPC   D2A41430  17.679  23.321  14.762
 3514DOPC   C3A41431  17.759  23.641  14.622
 3514DOPC   C4A41432  18.039  23.891  14.582
 3514DOPC   C1B41433  18.189  22.791  15.112
 3514DOPC   D2B41434  18.529  22.511  14.922
 3514DOPC   C3B41435  18.779  22.551  14.502
 3514DOPC   C4B41436  19.089  22.961  14.492
 3515DOPC   NC341437  11.049  21.741  11.392
 3515DOPC   PO441438  10.659  21.671  11.432
 3515DOPC   GL141439  10.809  21.651  11.942
 3515DOPC   GL241440  10.729  22.011  12.092
 3515DOPC   C1A41441  11.129  21.561  12.282
 3515DOPC   D2A41442  11.439  21.354  12.522
 3515DOPC   C3A41443  11.399  21.144  12.982
 3515DOPC   C4A41444  11.399  20.844  13.282
 3515DOPC   C1B41445  10.849  21.891  12.532
 3515DOPC   D2B41446  11.119  21.861  12.862
 3515DOPC   C3B41447  11.419  22.151  12.942
 3515DOPC   C4B41448  11.869  22.241  13.152
 3516DOPC   NC341449  23.239   5.944  15.482
 3516DOPC   PO441450  22.919   5.604  15.352
 3516DOPC   GL141451  22.989   5.214  15.102
 3516DOPC   GL241452  22.989   4.844  14.972
 3516DOPC   C1A41453  23.299   5.274  14.732
 3516DOPC   D2A41454  23.359   5.394  14.422
 3516DOPC   C3A41455  23.389   5.014  14.172
 3516DOPC   C4A41456  23.399   4.654  13.862
 3516DOPC   C1B41457  22.989   4.874  14.532
 3516DOPC   D2B41458  22.759   4.894  14.032
 3516DOPC   C3B41459  22.489   5.134  13.972
 3516DOPC   C4B41460  22.219   5.484  13.902
 3517DOPC   NC341461  17.669   6.274  10.902
 3517DOPC   PO441462  17.439   6.344  11.252
 3517DOPC   GL141463  17.609   6.184  11.592
 3517DOPC   GL241464  17.509   5.974  11.802
 3517DOPC   C1A41465  17.439   6.474  11.892
 3517DOPC   D2A41466  17.209   6.744  12.002
 3517DOPC   C3A41467  16.909   7.074  11.882
 3517DOPC   C4A41468  16.569   7.194  12.012
 3517DOPC   C1B41469  17.639   6.164  12.172
 3517DOPC   D2B41470  17.559   6.254  12.662
 3517DOPC   C3B41471  17.669   6.724  12.752
 3517DOPC   C4B41472  17.699   7.084  12.532
 3518DOPC   NC341473   8.119  16.404  11.302
 3518DOPC   PO441474   8.169  16.044  11.222
 3518DOPC   GL141475   8.379  16.074  11.632
 3518DOPC   GL241476   8.679  16.304  11.782
 3518DOPC   C1A41477   8.389  15.844  12.062
 3518DOPC   D2A41478   8.619  15.794  12.552
 3518DOPC   C3A41479   8.709  15.534  12.812
 3518DOPC   C4A41480   8.999  15.204  12.862
 3518DOPC   C1B41481   8.659  16.474  12.272
 3518DOPC   D2B41482   8.729  16.244  12.672
 3518DOPC   C3B41483   8.489  16.114  12.992
 3518DOPC   C4B41484   8.589  15.764  13.292
 3519DOPC   NC341485  20.629  12.304  15.212
 3519DOPC   PO441486  21.019  12.214  15.162
 3519DOPC   GL141487  20.839  12.364  14.742
 3519DOPC   GL241488  21.099  12.564  14.802
 3519DOPC   C1A41489  20.409  12.374  14.502
 3519DOPC   D2A41490  20.369  12.604  14.162
 3519DOPC   C3A41491  20.739  12.604  14.022
 3519DOPC   C4A41492  21.089  12.354  14.022
 3519DOPC   C1B41493  21.299  12.954  14.572
 3519DOPC   D2B41494  21.679  12.954  14.412
 3519DOPC   C3B41495  21.769  12.594  13.962
 3519DOPC   C4B41496  21.429  12.484  13.672
 3520DOPC   NC341497  16.729  17.464   7.982
 3520DOPC   PO441498  16.319  17.324   7.762
 3520DOPC   GL141499  16.249  17.174   7.382
 3520DOPC   GL241500  15.989  17.384   7.282
 3520DOPC   C1A41501  16.479  17.004   7.112
 3520DOPC   D2A41502  16.299  16.854   6.692
 3520DOPC   C3A41503  15.979  16.524   6.562
 3520DOPC   C4A41504  15.629  16.234   6.562
 3520DOPC   C1B41505  16.149  17.274   6.862
 3520DOPC   D2B41506  16.289  17.474   6.502
 3520DOPC   C3B41507  16.669  17.464   6.232
 3520DOPC   C4B41508  16.749  17.394   5.732
 3521DOPC   NC341509  11.529  24.331  11.402
 3521DOPC   PO441510  11.209  24.491  11.322
 3521DOPC   GL141511  11.189  24.591  11.732
 3521DOPC   GL241512  11.299  24.411  11.982
 3521DOPC   C1A41513  10.949  24.791  12.072
 3521DOPC   D2A41514  10.899  24.721  12.592
 3521DOPC   C3A41515  10.529  24.561  12.862
 3521DOPC   C4A41516  10.199  24.621  13.052
 3521DOPC   C1B41517  11.129  24.281  12.332
 3521DOPC   D2B41518  10.839  24.241  12.662
 3521DOPC   C3B41519  10.929  24.371  13.112
 3521DOPC   C4B41520  11.289  24.691  13.002
 3522DOPC   NC341521  12.609   2.894  14.512
 3522DOPC   PO441522  12.609   2.494  14.422
 3522DOPC   GL141523  12.669   2.494  14.052
 3522DOPC   GL241524  12.969   2.314  13.922
 3522DOPC   C1A41525  12.619   2.724  13.672
 3522DOPC   D2A41526  12.619   2.524  13.352
 3522DOPC   C3A41527  12.959   2.694  13.172
 3522DOPC   C4A41528  13.049   3.094  13.042
 3522DOPC   C1B41529  13.169   2.414  13.612
 3522DOPC   D2B41530  13.519   2.404  13.392
 3522DOPC   C3B41531  13.639   2.044  13.162
 3522DOPC   C4B41532  13.769   1.904  12.862
 3523DOPC   NC341533  11.589   2.484  10.372
 3523DOPC   PO441534  11.899   2.254  10.512
 3523DOPC   GL141535  12.019   2.294  10.982
 3523DOPC   GL241536  12.129   2.034  11.072
 3523DOPC   C1A41537  11.859   2.594  11.312
 3523DOPC   D2A41538  11.929   2.564  11.792
 3523DOPC   C3A41539  12.339   2.634  11.912
 3523DOPC   C4A41540  12.629   2.894  12.072
 3523DOPC   C1B41541  11.929   2.014  11.432
 3523DOPC   D2B41542  12.119   2.084  11.832
 3523DOPC   C3B41543  12.059   2.344  12.172
 3523DOPC   C4B41544  11.599   2.504  12.332
 3524DOPC   NC341545  21.019   9.024  11.162
 3524DOPC   PO441546  20.919   8.934  11.542
 3524DOPC   GL141547  20.739   9.014  11.862
 3524DOPC   GL241548  20.779   8.804  12.022
 3524DOPC   C1A41549  20.529   9.184  12.242
 3524DOPC   D2A41550  20.169   9.284  12.562
 3524DOPC   C3A41551  19.869   9.024  12.592
 3524DOPC   C4A41552  19.579   8.774  12.862
 3524DOPC   C1B41553  20.889   8.824  12.412
 3524DOPC   D2B41554  20.669   9.134  12.712
 3524DOPC   C3B41555  20.849   9.184  13.142
 3524DOPC   C4B41556  21.009   9.384  13.412
 3525DOPC   NC341557   2.189   4.104  11.462
 3525DOPC   PO441558   2.509   4.264  11.282
 3525DOPC   GL141559   2.579   4.404  11.592
 3525DOPC   GL241560   2.859   4.234  11.682
 3525DOPC   C1A41561   2.429   4.554  12.012
 3525DOPC   D2A41562   2.429   4.954  12.222
 3525DOPC   C3A41563   2.889   4.924  12.532
 3525DOPC   C4A41564   3.169   4.614  12.602
 3525DOPC   C1B41565   3.149   4.164  11.952
 3525DOPC   D2B41566   3.309   4.174  12.442
 3525DOPC   C3B41567   3.129   3.984  12.732
 3525DOPC   C4B41568   2.959   3.954  13.072
 3526DOPC   NC341569   8.519  12.384  14.802
 3526DOPC   PO441570   8.669  11.954  14.722
 3526DOPC   GL141571   8.779  12.204  14.332
 3526DOPC   GL241572   8.869  12.464  14.262
 3526DOPC   C1A41573   8.939  12.234  13.812
 3526DOPC   D2A41574   8.999  12.184  13.362
 3526DOPC   C3A41575   8.609  12.304  13.092
 3526DOPC   C4A41576   8.829  12.424  12.672
 3526DOPC   C1B41577   8.749  12.704  14.022
 3526DOPC   D2B41578   8.499  12.974  13.962
 3526DOPC   C3B41579   8.519  13.064  13.512
 3526DOPC   C4B41580   8.709  12.914  13.112
 3527DOPC   NC341581   0.179  14.604  11.392
 3527DOPC   PO441582   0.489  14.684  11.652
 3527DOPC   GL141583   0.369  14.634  12.052
 3527DOPC   GL241584   0.499  14.444  12.342
 3527DOPC   C1A41585   0.439  14.884  12.422
 3527DOPC   D2A41586   0.669  14.834  12.832
 3527DOPC   C3A41587   0.859  14.494  12.982
 3527DOPC   C4A41588   0.899  14.474  13.492
 3527DOPC   C1B41589   0.739  14.434  12.512
 3527DOPC   D2B41590   1.129  14.644  12.602
 3527DOPC   C3B41591   1.239  14.964  12.852
 3527DOPC   C4B41592   1.589  15.164  13.112
 3528DOPC   NC341593  17.579  16.284  11.972
 3528DOPC   PO441594  17.199  16.044  11.842
 3528DOPC   GL141595  17.169  16.184  12.272
 3528DOPC   GL241596  17.459  16.324  12.452
 3528DOPC   C1A41597  17.219  15.944  12.572
 3528DOPC   D2A41598  17.209  16.044  12.952
 3528DOPC   C3A41599  16.749  15.954  13.172
 3528DOPC   C4A41600  16.449  15.964  13.522
 3528DOPC   C1B41601  17.529  16.554  12.902
 3528DOPC   D2B41602  17.779  16.694  13.272
 3528DOPC   C3B41603  18.029  16.614  13.522
 3528DOPC   C4B41604  18.389  16.794  13.842
 3529DOPC   NC341605   9.019  11.304  10.462
 3529DOPC   PO441606   8.769  10.894  10.732
 3529DOPC   GL141607   8.539  10.744  11.092
 3529DOPC   GL241608   8.829  10.724  11.262
 3529DOPC   C1A41609   8.299  10.634  11.422
 3529DOPC   D2A41610   8.279  10.594  11.912
 3529DOPC   C3A41611   8.069  10.774  12.272
 3529DOPC   C4A41612   7.799  10.874  12.692
 3529DOPC   C1B41613   8.729  10.684  11.762
 3529DOPC   D2B41614   8.559  10.894  12.132
 3529DOPC   C3B41615   8.849  11.114  12.532
 3529DOPC   C4B41616   9.199  11.024  12.812
 3530DOPC   NC341617  13.789   2.384  10.862
 3530DOPC   PO441618  14.059   2.724  11.022
 3530DOPC   GL141619  14.049   2.494  11.502
 3530DOPC   GL241620  14.199   2.244  11.672
 3530DOPC   C1A41621  13.779   2.464  11.822
 3530DOPC   D2A41622  13.409   2.294  11.872
 3530DOPC   C3A41623  13.159   2.334  12.192
 3530DOPC   C4A41624  12.799   2.514  12.282
 3530DOPC   C1B41625  14.219   2.384  12.112
 3530DOPC   D2B41626  14.079   2.584  12.562
 3530DOPC   C3B41627  14.039   2.954  12.722
 3530DOPC   C4B41628  14.019   3.304  13.012
 3531DOPC   NC341629   2.979   6.804  11.312
 3531DOPC   PO441630   3.479   6.784  11.512
 3531DOPC   GL141631   3.579   6.894  11.962
 3531DOPC   GL241632   3.819   6.684  12.062
 3531DOPC   C1A41633   3.569   6.964  12.482
 3531DOPC   D2A41634   3.549   7.034  12.962
 3531DOPC   C3A41635   3.099   7.034  12.902
 3531DOPC   C4A41636   2.709   7.064  13.082
 3531DOPC   C1B41637   3.429   6.434  12.272
 3531DOPC   D2B41638   3.009   6.274  12.372
 3531DOPC   C3B41639   2.879   6.194  12.712
 3531DOPC   C4B41640   2.709   6.564  12.862
 3532DOPC   NC341641  23.819  11.174  11.592
 3532DOPC   PO441642  23.619  10.824  11.622
 3532DOPC   GL141643  23.589  10.984  12.002
 3532DOPC   GL241644  23.269  11.124  11.922
 3532DOPC   C1A41645  23.579  10.884  12.362
 3532DOPC   D2A41646  23.759  10.884  12.782
 3532DOPC   C3A41647  23.509  10.804  13.122
 3532DOPC   C4A41648  23.429  11.174  13.102
 3532DOPC   C1B41649  23.179  11.244  12.352
 3532DOPC   D2B41650  22.939  11.174  12.862
 3532DOPC   C3B41651  22.999  10.984  13.252
 3532DOPC   C4B41652  23.129  10.574  13.412
 3533DOPC   NC341653   8.189  21.274  15.262
 3533DOPC   PO441654   8.519  21.354  15.002
 3533DOPC   GL141655   8.449  21.461  14.602
 3533DOPC   GL241656   8.099  21.571  14.422
 3533DOPC   C1A41657   8.679  21.254  14.262
 3533DOPC   D2A41658   8.939  21.274  14.012
 3533DOPC   C3A41659   8.819  21.194  13.582
 3533DOPC   C4A41660   8.839  21.044  13.072
 3533DOPC   C1B41661   7.919  21.274  14.152
 3533DOPC   D2B41662   7.859  21.274  13.652
 3533DOPC   C3B41663   7.599  21.541  13.472
 3533DOPC   C4B41664   7.359  21.681  13.062
 3534DOPC   NC341665   4.499  14.814  11.462
 3534DOPC   PO441666   4.869  15.064  11.332
 3534DOPC   GL141667   5.049  14.864  11.782
 3534DOPC   GL241668   5.059  15.224  11.982
 3534DOPC   C1A41669   4.889  14.764  12.232
 3534DOPC   D2A41670   4.539  14.564  12.632
 3534DOPC   C3A41671   4.719  14.354  12.922
 3534DOPC   C4A41672   4.979  14.124  13.242
 3534DOPC   C1B41673   5.309  15.554  12.152
 3534DOPC   D2B41674   5.649  15.704  12.392
 3534DOPC   C3B41675   6.079  15.644  12.592
 3534DOPC   C4B41676   6.459  15.874  12.672
 3535DOPC   NC341677   0.859  21.401  15.452
 3535DOPC   PO441678   1.249  21.541  15.512
 3535DOPC   GL141679   1.369  21.631  15.062
 3535DOPC   GL241680   1.749  21.611  15.042
 3535DOPC   C1A41681   1.219  21.501  14.652
 3535DOPC   D2A41682   1.119  21.801  14.272
 3535DOPC   C3A41683   0.939  22.201  14.442
 3535DOPC   C4A41684   0.619  22.271  14.872
 3535DOPC   C1B41685   1.949  21.941  14.772
 3535DOPC   D2B41686   1.989  22.331  14.462
 3535DOPC   C3B41687   1.799  22.561  14.152
 3535DOPC   C4B41688   1.519  22.761  14.262
 3536DOPC   NC341689  19.779   2.234  11.422
 3536DOPC   PO441690  19.709   2.514  11.842
 3536DOPC   GL141691  19.689   2.894  12.072
 3536DOPC   GL241692  19.839   3.094  11.962
 3536DOPC   C1A41693  19.579   2.984  12.432
 3536DOPC   D2A41694  19.369   3.034  12.822
 3536DOPC   C3A41695  19.399   2.944  13.222
 3536DOPC   C4A41696  19.699   2.904  13.572
 3536DOPC   C1B41697  20.099   3.064  12.372
 3536DOPC   D2B41698  20.289   3.304  12.702
 3536DOPC   C3B41699  20.099   3.544  12.892
 3536DOPC   C4B41700  19.939   3.684  13.242
 3537DOPC   NC341701   4.809   5.114  11.272
 3537DOPC   PO441702   5.219   4.854  11.142
 3537DOPC   GL141703   4.969   4.724  11.512
 3537DOPC   GL241704   5.149   4.484  11.712
 3537DOPC   C1A41705   4.949   4.884  12.022
 3537DOPC   D2A41706   4.779   5.024  12.412
 3537DOPC   C3A41707   5.219   4.994  12.792
 3537DOPC   C4A41708   5.669   5.024  12.772
 3537DOPC   C1B41709   5.019   4.394  12.092
 3537DOPC   D2B41710   4.769   3.984  12.102
 3537DOPC   C3B41711   4.909   3.594  12.372
 3537DOPC   C4B41712   5.329   3.424  12.402
 3538DOPC   NC341713  19.479  23.871  11.652
 3538DOPC   PO441714  19.769  23.511  11.852
 3538DOPC   GL141715  19.719  23.261  12.292
 3538DOPC   GL241716  19.699  22.971  12.252
 3538DOPC   C1A41717  19.639  23.351  12.822
 3538DOPC   D2A41718  19.689  23.111  13.162
 3538DOPC   C3A41719  19.479  22.711  13.162
 3538DOPC   C4A41720  19.429  22.271  13.032
 3538DOPC   C1B41721  19.549  22.721  12.562
 3538DOPC   D2B41722  19.209  22.581  12.652
 3538DOPC   C3B41723  19.009  22.641  13.032
 3538DOPC   C4B41724  18.849  22.791  13.412
 3539DOPC   NC341725  23.099   6.994  11.592
 3539DOPC   PO441726  23.339   6.874  11.902
 3539DOPC   GL141727  23.229   6.914  12.352
 3539DOPC   GL241728  23.539   6.764  12.522
 3539DOPC   C1A41729  23.319   7.294  12.652
 3539DOPC   D2A41730  23.299   7.684  12.912
 3539DOPC   C3A41731  23.629   7.844  13.192
 3539DOPC   C4A41732  23.959   7.904  13.312
 3539DOPC   C1B41733  23.319   6.784  12.842
 3539DOPC   D2B41734  23.019   6.834  13.102
 3539DOPC   C3B41735  22.899   6.444  13.122
 3539DOPC   C4B41736  23.239   6.094  13.132
 3540DOPC   NC341737   5.389  16.034  11.252
 3540DOPC   PO441738   4.979  16.034  11.482
 3540DOPC   GL141739   5.119  16.064  11.902
 3540DOPC   GL241740   5.099  16.304  12.102
 3540DOPC   C1A41741   5.139  15.934  12.422
 3540DOPC   D2A41742   5.289  15.674  12.772
 3540DOPC   C3A41743   5.119  15.714  13.162
 3540DOPC   C4A41744   4.959  16.104  13.292
 3540DOPC   C1B41745   4.929  16.374  12.522
 3540DOPC   D2B41746   4.699  16.624  12.832
 3540DOPC   C3B41747   4.559  16.304  13.122
 3540DOPC   C4B41748   4.179  16.134  13.452
 3541DOPC   NC341749   4.169  23.921  11.432
 3541DOPC   PO441750   4.589  24.111  11.592
 3541DOPC   GL141751   4.799  24.251  11.982
 3541DOPC   GL241752   5.009  24.431  11.842
 3541DOPC   C1A41753   4.829  24.151  12.412
 3541DOPC   D2A41754   4.819  24.101  12.802
 3541DOPC   C3A41755   4.459  24.141  13.022
 3541DOPC   C4A41756   4.449  24.271  13.382
 3541DOPC   C1B41757   5.289  24.391  12.212
 3541DOPC   D2B41758   5.389  24.121  12.612
 3541DOPC   C3B41759   5.319  24.281  13.072
 3541DOPC   C4B41760   5.449  24.631  13.362
 3542DOPC   NC341761  15.979  10.964  14.102
 3542DOPC   PO441762  16.059  11.464  14.072
 3542DOPC   GL141763  16.059  11.344  13.682
 3542DOPC   GL241764  16.029  11.754  13.612
 3542DOPC   C1A41765  15.949  11.054  13.352
 3542DOPC   D2A41766  15.769  10.714  13.172
 3542DOPC   C3A41767  15.319  10.734  13.182
 3542DOPC   C4A41768  15.019  10.964  12.782
 3542DOPC   C1B41769  16.219  11.784  13.282
 3542DOPC   D2B41770  16.199  11.924  12.782
 3542DOPC   C3B41771  16.079  11.554  12.612
 3542DOPC   C4B41772  16.149  11.174  12.752
 3543DOPC   NC341773  23.569  14.764  12.272
 3543DOPC   PO441774  23.149  14.814  12.082
 3543DOPC   GL141775  23.089  14.694  12.472
 3543DOPC   GL241776  22.839  14.444  12.462
 3543DOPC   C1A41777  23.299  14.484  12.812
 3543DOPC   D2A41778  23.759  14.454  12.732
 3543DOPC   C3A41779  24.009  14.624  13.092
 3543DOPC   C4A41780  24.179  15.004  13.312
 3543DOPC   C1B41781  22.779  14.564  12.922
 3543DOPC   D2B41782  22.969  14.304  13.332
 3543DOPC   C3B41783  23.059  14.614  13.702
 3543DOPC   C4B41784  22.929  15.094  13.832
 3544DOPC   NC341785  24.879  10.444  11.692
 3544DOPC   PO441786  24.759  10.084  11.452
 3544DOPC   GL141787  24.839   9.934  11.862
 3544DOPC   GL241788  25.099  10.104  12.022
 3544DOPC   C1A41789  24.779  10.074  12.402
 3544DOPC   D2A41790  24.559  10.154  12.902
 3544DOPC   C3A41791  24.549  10.594  13.142
 3544DOPC   C4A41792  24.509  10.594  13.612
 3544DOPC   C1B41793  25.289   9.954  12.352
 3544DOPC   D2B41794  25.599   9.934  12.572
 3544DOPC   C3B41795  25.559   9.924  13.042
 3544DOPC   C4B41796  25.429   9.974  13.402
 3545DOPC   NC341797   8.729  20.024  15.142
 3545DOPC   PO441798   9.149  20.044  15.342
 3545DOPC   GL141799   9.279  20.144  14.912
 3545DOPC   GL241800   9.509  20.064  14.642
 3545DOPC   C1A41801   9.089  20.454  14.562
 3545DOPC   D2A41802   8.749  20.594  14.362
 3545DOPC   C3A41803   8.729  20.684  13.872
 3545DOPC   C4A41804   8.759  20.614  13.402
 3545DOPC   C1B41805   9.539  20.144  14.192
 3545DOPC   D2B41806   9.649  19.884  13.842
 3545DOPC   C3B41807   9.439  19.964  13.452
 3545DOPC   C4B41808   9.219  20.364  13.262
 3546DOPC   NC341809   8.509   6.464  14.802
 3546DOPC   PO441810   8.399   6.014  14.702
 3546DOPC   GL141811   8.289   6.104  14.302
 3546DOPC   GL241812   8.429   6.384  14.022
 3546DOPC   C1A41813   8.129   6.014  13.842
 3546DOPC   D2A41814   7.929   5.854  13.512
 3546DOPC   C3A41815   8.099   6.064  13.212
 3546DOPC   C4A41816   8.439   6.344  13.062
 3546DOPC   C1B41817   8.209   6.414  13.612
 3546DOPC   D2B41818   7.899   6.484  13.292
 3546DOPC   C3B41819   7.569   6.124  13.222
 3546DOPC   C4B41820   7.549   5.554  13.262
 3547DOPC   NC341821   4.799  10.474  15.352
 3547DOPC   PO441822   4.559  10.124  15.702
 3547DOPC   GL141823   4.299   9.924  15.312
 3547DOPC   GL241824   4.189  10.134  15.082
 3547DOPC   C1A41825   4.569   9.944  14.882
 3547DOPC   D2A41826   4.509   9.834  14.402
 3547DOPC   C3A41827   4.609  10.054  14.062
 3547DOPC   C4A41828   4.449   9.984  13.702
 3547DOPC   C1B41829   3.959  10.314  14.752
 3547DOPC   D2B41830   3.619  10.464  14.462
 3547DOPC   C3B41831   3.499  10.354  14.032
 3547DOPC   C4B41832   3.719  10.344  13.652
 3548DOPC   NC341833   5.119  22.361  11.662
 3548DOPC   PO441834   5.499  22.321  11.922
 3548DOPC   GL141835   5.679  22.561  12.192
 3548DOPC   GL241836   6.059  22.541  12.252
 3548DOPC   C1A41837   5.779  22.711  12.592
 3548DOPC   D2A41838   5.719  22.961  12.872
 3548DOPC   C3A41839   5.979  22.961  13.182
 3548DOPC   C4A41840   6.059  22.711  13.562
 3548DOPC   C1B41841   6.029  22.291  12.572
 3548DOPC   D2B41842   5.939  22.031  12.892
 3548DOPC   C3B41843   5.949  22.121  13.432
 3548DOPC   C4B41844   5.699  22.361  13.702
 3549DOPC   NC341845  19.719   4.744  11.252
 3549DOPC   PO441846  19.499   5.134  11.512
 3549DOPC   GL141847  19.449   5.284  11.982
 3549DOPC   GL241848  19.449   5.604  12.062
 3549DOPC   C1A41849  19.589   5.184  12.372
 3549DOPC   D2A41850  19.729   4.974  12.772
 3549DOPC   C3A41851  19.479   4.934  13.092
 3549DOPC   C4A41852  19.179   4.984  13.422
 3549DOPC   C1B41853  19.089   5.754  12.382
 3549DOPC   D2B41854  19.019   5.754  12.832
 3549DOPC   C3B41855  18.629   5.614  12.952
 3549DOPC   C4B41856  18.369   5.454  13.212
 3550DOPC   NC341857   3.229  20.244  11.862
 3550DOPC   PO441858   3.429  19.854  11.782
 3550DOPC   GL141859   3.129  19.674  12.032
 3550DOPC   GL241860   3.029  19.344  11.992
 3550DOPC   C1A41861   3.069  19.684  12.522
 3550DOPC   D2A41862   2.889  19.804  12.872
 3550DOPC   C3A41863   2.759  20.184  13.002
 3550DOPC   C4A41864   2.459  20.524  12.982
 3550DOPC   C1B41865   2.899  19.204  12.362
 3550DOPC   D2B41866   2.929  19.114  12.812
 3550DOPC   C3B41867   2.679  19.344  13.032
 3550DOPC   C4B41868   2.559  19.514  13.432
 3551DOPC   NC341869  19.739  16.824  12.062
 3551DOPC   PO441870  19.439  16.504  11.972
 3551DOPC   GL141871  19.239  16.694  12.302
 3551DOPC   GL241872  18.799  16.604  12.312
 3551DOPC   C1A41873  19.069  16.924  12.722
 3551DOPC   D2A41874  19.039  17.294  13.082
 3551DOPC   C3A41875  19.179  17.324  13.532
 3551DOPC   C4A41876  19.469  17.184  13.792
 3551DOPC   C1B41877  18.869  16.474  12.702
 3551DOPC   D2B41878  18.839  16.584  13.052
 3551DOPC   C3B41879  19.179  16.484  13.292
 3551DOPC   C4B41880  19.279  16.634  13.672
 3552DOPC   NC341881  24.969  12.704  15.112
 3552DOPC   PO441882  24.559  12.864  15.312
 3552DOPC   GL141883  24.539  12.774  14.882
 3552DOPC   GL241884  24.889  12.894  14.662
 3552DOPC   C1A41885  24.639  12.344  14.672
 3552DOPC   D2A41886  24.949  12.144  14.402
 3552DOPC   C3A41887  25.109  11.714  14.572
 3552DOPC   C4A41888  25.149  11.434  14.802
 3552DOPC   C1B41889  24.799  12.734  14.282
 3552DOPC   D2B41890  24.659  12.684  13.882
 3552DOPC   C3B41891  24.559  13.024  13.592
 3552DOPC   C4B41892  24.909  13.144  13.242
 3553DOPC   NC341893  24.889  20.714  12.412
 3553DOPC   PO441894  24.839  21.104  12.212
 3553DOPC   GL141895  24.579  21.224  12.522
 3553DOPC   GL241896  24.719  21.004  12.792
 3553DOPC   C1A41897  24.219  21.114  12.872
 3553DOPC   D2A41898  24.129  21.274  13.382
 3553DOPC   C3A41899  23.829  21.511  13.492
 3553DOPC   C4A41900  23.999  21.821  13.752
 3553DOPC   C1B41901  24.589  21.094  13.242
 3553DOPC   D2B41902  24.509  20.894  13.542
 3553DOPC   C3B41903  24.719  20.574  13.692
 3553DOPC   C4B41904  24.779  20.094  13.742
 3554DOPC   NC341905  14.859  16.524  15.312
 3554DOPC   PO441906  15.119  16.334  15.012
 3554DOPC   GL141907  15.179  16.534  14.622
 3554DOPC   GL241908  15.069  16.874  14.562
 3554DOPC   C1A41909  15.399  16.624  14.202
 3554DOPC   D2A41910  15.549  16.444  13.762
 3554DOPC   C3A41911  15.469  16.584  13.412
 3554DOPC   C4A41912  15.249  16.744  13.152
 3554DOPC   C1B41913  14.709  16.864  14.222
 3554DOPC   D2B41914  14.739  16.614  13.882
 3554DOPC   C3B41915  14.459  16.724  13.622
 3554DOPC   C4B41916  13.999  16.754  13.732
 3555DOPC   NC341917   9.129  15.994  15.262
 3555DOPC   PO441918   8.729  16.194  15.272
 3555DOPC   GL141919   8.779  16.064  14.882
 3555DOPC   GL241920   8.989  15.794  14.882
 3555DOPC   C1A41921   8.939  16.104  14.462
 3555DOPC   D2A41922   9.359  16.314  14.392
 3555DOPC   C3A41923   9.189  16.434  14.052
 3555DOPC   C4A41924   9.059  16.684  13.762
 3555DOPC   C1B41925   8.899  15.604  14.502
 3555DOPC   D2B41926   8.669  15.724  14.192
 3555DOPC   C3B41927   8.399  16.044  14.282
 3555DOPC   C4B41928   7.979  15.964  14.152
 3556DOPC   NC341929  20.239   4.844  15.462
 3556DOPC   PO441930  19.909   4.574  15.422
 3556DOPC   GL141931  20.049   4.724  15.022
 3556DOPC   GL241932  20.079   4.454  14.772
 3556DOPC   C1A41933  20.299   4.874  14.652
 3556DOPC   D2A41934  20.729   5.074  14.482
 3556DOPC   C3A41935  21.179   4.904  14.602
 3556DOPC   C4A41936  21.589   4.864  14.822
 3556DOPC   C1B41937  19.939   4.624  14.382
 3556DOPC   D2B41938  19.729   4.434  13.982
 3556DOPC   C3B41939  19.559   4.454  13.592
 3556DOPC   C4B41940  19.369   4.484  13.182
 3557DOPC   NC341941  11.309   9.994  14.552
 3557DOPC   PO441942  11.509  10.254  14.202
 3557DOPC   GL141943  11.579  10.354  13.802
 3557DOPC   GL241944  11.819  10.604  13.702
 3557DOPC   C1A41945  11.369  10.344  13.412
 3557DOPC   D2A41946  11.549  10.344  12.992
 3557DOPC   C3A41947  11.889  10.174  12.872
 3557DOPC   C4A41948  12.199  10.184  12.452
 3557DOPC   C1B41949  11.859  10.694  13.292
 3557DOPC   D2B41950  11.799  10.814  12.822
 3557DOPC   C3B41951  12.219  11.144  12.782
 3557DOPC   C4B41952  12.489  11.264  12.552
 3558DOPC   NC341953   0.279  12.414  11.562
 3558DOPC   PO441954   0.529  12.084  11.692
 3558DOPC   GL141955   0.879  12.414  11.862
 3558DOPC   GL241956   1.219  12.344  11.932
 3558DOPC   C1A41957   1.089  12.784  12.132
 3558DOPC   D2A41958   1.099  13.164  12.282
 3558DOPC   C3A41959   0.769  13.244  12.582
 3558DOPC   C4A41960   0.529  12.994  12.802
 3558DOPC   C1B41961   0.999  12.374  12.402
 3558DOPC   D2B41962   0.949  12.784  12.642
 3558DOPC   C3B41963   0.889  12.604  13.172
 3558DOPC   C4B41964   1.079  12.704  13.422
 3559DOPC   NC341965   2.199   9.114  11.602
 3559DOPC   PO441966   1.849   9.284  11.742
 3559DOPC   GL141967   1.599   9.274  12.142
 3559DOPC   GL241968   1.749   9.594  12.352
 3559DOPC   C1A41969   1.179   9.314  12.292
 3559DOPC   D2A41970   0.889   9.474  12.702
 3559DOPC   C3A41971   0.859   9.234  13.082
 3559DOPC   C4A41972   0.729   8.784  13.142
 3559DOPC   C1B41973   1.779   9.164  12.632
 3559DOPC   D2B41974   1.649   9.034  13.072
 3559DOPC   C3B41975   1.509   9.394  13.362
 3559DOPC   C4B41976   1.449   9.724  13.252
 3560DOPC   NC341977  14.299  12.204   9.972
 3560DOPC   PO441978  13.899  12.134  10.312
 3560DOPC   GL141979  13.799  12.324  10.772
 3560DOPC   GL241980  13.839  12.174  11.092
 3560DOPC   C1A41981  13.569  12.564  11.092
 3560DOPC   D2A41982  13.499  12.554  11.532
 3560DOPC   C3A41983  13.129  12.714  11.812
 3560DOPC   C4A41984  12.889  13.094  12.122
 3560DOPC   C1B41985  14.289  12.024  11.372
 3560DOPC   D2B41986  14.619  12.194  11.652
 3560DOPC   C3B41987  14.509  12.174  12.122
 3560DOPC   C4B41988  14.519  12.294  12.462
 3561DOPC   NC341989   8.049   1.854  11.022
 3561DOPC   PO441990   8.179   1.654  11.362
 3561DOPC   GL141991   8.599   1.654  11.522
 3561DOPC   GL241992   8.659   1.434  11.692
 3561DOPC   C1A41993   8.799   1.804  11.982
 3561DOPC   D2A41994   8.619   1.634  12.412
 3561DOPC   C3A41995   8.639   1.984  12.632
 3561DOPC   C4A41996   8.909   2.104  12.882
 3561DOPC   C1B41997   8.279   1.574  11.982
 3561DOPC   D2B41998   8.139   1.464  12.322
 3561DOPC   C3B41999   8.239   1.344  12.752
 3561DOPC   C4B42000   7.909   1.094  13.032
 3562DOPC   NC342001   5.989  11.514  11.152
 3562DOPC   PO442002   6.149  11.824  11.322
 3562DOPC   GL142003   6.129  12.104  11.672
 3562DOPC   GL242004   6.319  12.404  11.702
 3562DOPC   C1A42005   6.189  11.864  12.052
 3562DOPC   D2A42006   6.119  11.584  12.352
 3562DOPC   C3A42007   5.949  11.544  12.802
 3562DOPC   C4A42008   5.839  11.094  13.062
 3562DOPC   C1B42009   6.119  12.444  12.152
 3562DOPC   D2B42010   6.159  12.604  12.632
 3562DOPC   C3B42011   6.549  12.714  12.862
 3562DOPC   C4B42012   7.029  12.624  13.042
 3563DOPC   NC342013   0.389   2.134  15.462
 3563DOPC   PO442014   0.779   2.074  15.182
 3563DOPC   GL142015   0.479   2.134  14.942
 3563DOPC   GL242016   0.319   1.844  14.872
 3563DOPC   C1A42017   0.021   2.124  14.652
 3563DOPC   D2A42018  -0.119   2.354  14.192
 3563DOPC   C3A42019  -0.209   2.254  13.732
 3563DOPC   C4A42020  -0.259   2.214  13.312
 3563DOPC   C1B42021   0.179   1.634  14.562
 3563DOPC   D2B42022   0.139   1.354  14.232
 3563DOPC   C3B42023   0.269   1.344  13.842
 3563DOPC   C4B42024   0.419   1.444  13.422
 3564DOPC   NC342025   1.799   8.154  11.162
 3564DOPC   PO442026   2.139   8.004  11.272
 3564DOPC   GL142027   1.999   7.964  11.712
 3564DOPC   GL242028   1.829   8.224  11.882
 3564DOPC   C1A42029   1.879   7.854  12.232
 3564DOPC   D2A42030   1.799   7.684  12.592
 3564DOPC   C3A42031   1.679   7.644  12.952
 3564DOPC   C4A42032   1.859   7.494  13.332
 3564DOPC   C1B42033   1.719   8.324  12.332
 3564DOPC   D2B42034   1.749   8.714  12.512
 3564DOPC   C3B42035   2.059   8.714  12.872
 3564DOPC   C4B42036   2.179   9.054  13.102
 3565DOPC   NC342037  25.319  18.534  11.772
 3565DOPC   PO442038  25.059  18.494  12.052
 3565DOPC   GL142039  25.119  18.534  12.462
 3565DOPC   GL242040  24.769  18.504  12.642
 3565DOPC   C1A42041  25.189  18.694  12.812
 3565DOPC   D2A42042  25.369  18.634  13.242
 3565DOPC   C3A42043  25.379  18.634  13.652
 3565DOPC   C4A42044  25.189  18.704  14.082
 3565DOPC   C1B42045  24.779  18.464  13.102
 3565DOPC   D2B42046  24.829  18.474  13.552
 3565DOPC   C3B42047  24.939  18.944  13.702
 3565DOPC   C4B42048  25.119  19.294  13.882
 3566DOPC   NC342049   1.439  23.131  15.512
 3566DOPC   PO442050   1.529  22.751  15.282
 3566DOPC   GL142051   1.179  22.861  15.192
 3566DOPC   GL242052   1.099  22.581  15.022
 3566DOPC   C1A42053   0.939  23.161  15.012
 3566DOPC   D2A42054   0.529  23.261  14.992
 3566DOPC   C3A42055   0.559  23.261  14.562
 3566DOPC   C4A42056   0.789  23.321  14.252
 3566DOPC   C1B42057   0.829  22.701  14.712
 3566DOPC   D2B42058   0.739  22.861  14.262
 3566DOPC   C3B42059   1.149  22.991  14.092
 3566DOPC   C4B42060   1.419  23.141  13.782
 3567DOPC   NC342061  25.019   0.964  11.622
 3567DOPC   PO442062  25.259   0.964  11.952
 3567DOPC   GL142063  25.439   1.114  12.332
 3567DOPC   GL242064  25.239   1.264  12.592
 3567DOPC   C1A42065  25.706   1.424  12.522
 3567DOPC   D2A42066  25.726   1.874  12.652
 3567DOPC   C3A42067  25.656   1.834  13.082
 3567DOPC   C4A42068  25.776   1.974  13.522
 3567DOPC   C1B42069  25.159   1.634  13.002
 3567DOPC   D2B42070  25.359   1.584  13.432
 3567DOPC   C3B42071  25.109   1.834  13.692
 3567DOPC   C4B42072  25.009   2.034  14.072
 3568DOPC   NC342073   6.029  12.424  11.202
 3568DOPC   PO442074   5.889  12.834  11.272
 3568DOPC   GL142075   5.919  12.954  11.752
 3568DOPC   GL242076   6.199  12.844  11.772
 3568DOPC   C1A42077   5.889  12.914  12.192
 3568DOPC   D2A42078   6.029  13.124  12.762
 3568DOPC   C3A42079   6.009  12.854  13.082
 3568DOPC   C4A42080   5.979  12.374  13.322
 3568DOPC   C1B42081   6.409  12.814  12.252
 3568DOPC   D2B42082   6.469  13.084  12.532
 3568DOPC   C3B42083   6.749  13.214  12.672
 3568DOPC   C4B42084   7.009  13.494  12.962
 3569DOPC   NC342085   5.989   2.864  11.202
 3569DOPC   PO442086   6.019   2.354  11.352
 3569DOPC   GL142087   6.149   2.194  11.682
 3569DOPC   GL242088   6.309   1.914  11.542
 3569DOPC   C1A42089   6.099   2.244  12.182
 3569DOPC   D2A42090   6.119   2.064  12.602
 3569DOPC   C3A42091   6.529   2.034  12.972
 3569DOPC   C4A42092   6.809   2.234  13.272
 3569DOPC   C1B42093   6.519   1.914  12.022
 3569DOPC   D2B42094   6.469   1.654  12.382
 3569DOPC   C3B42095   6.669   1.554  12.772
 3569DOPC   C4B42096   6.969   1.834  12.982
 3570DOPC   NC342097   7.299   7.094  15.292
 3570DOPC   PO442098   7.309   7.004  14.842
 3570DOPC   GL142099   7.269   7.034  14.322
 3570DOPC   GL242100   7.579   6.924  14.212
 3570DOPC   C1A42101   7.229   7.194  13.972
 3570DOPC   D2A42102   7.279   7.324  13.532
 3570DOPC   C3A42103   7.159   6.974  13.172
 3570DOPC   C4A42104   6.989   6.614  12.902
 3570DOPC   C1B42105   7.739   7.284  13.832
 3570DOPC   D2B42106   7.939   7.314  13.472
 3570DOPC   C3B42107   7.659   7.474  13.092
 3570DOPC   C4B42108   7.259   7.374  12.862
 3571DOPC   NC342109  25.419  12.254  11.872
 3571DOPC   PO442110  25.429  12.634  11.542
 3571DOPC   GL142111  25.209  12.934  11.862
 3571DOPC   GL242112  25.079  12.634  12.002
 3571DOPC   C1A42113  25.019  13.314  12.032
 3571DOPC   D2A42114  24.919  13.624  12.492
 3571DOPC   C3A42115  25.019  13.924  12.672
 3571DOPC   C4A42116  25.169  13.904  13.122
 3571DOPC   C1B42117  25.439  12.724  12.322
 3571DOPC   D2B42118  25.836  12.964  12.412
 3571DOPC   C3B42119  25.866  13.394  12.532
 3571DOPC   C4B42120  25.766  13.734  12.822
 3572DOPC   NC342121  18.779   0.244  15.752
 3572DOPC   PO442122  19.059   0.494  15.912
 3572DOPC   GL142123  19.329   0.474  15.442
 3572DOPC   GL242124  19.479   0.094  15.352
 3572DOPC   C1A42125  19.459   0.474  15.122
 3572DOPC   D2A42126  19.419   0.344  14.702
 3572DOPC   C3A42127  19.219   0.504  14.312
 3572DOPC   C4A42128  18.969   0.304  13.882
 3572DOPC   C1B42129  19.089  -0.016  15.172
 3572DOPC   D2B42130  18.789   0.014  14.842
 3572DOPC   C3B42131  18.829  -0.396  14.542
 3572DOPC   C4B42132  18.739  -0.796  14.312
 3573DOPC   NC342133  20.269   3.954  15.552
 3573DOPC   PO442134  20.649   4.124  15.552
 3573DOPC   GL142135  20.779   4.064  15.092
 3573DOPC   GL242136  20.459   4.104  14.932
 3573DOPC   C1A42137  21.109   4.124  14.872
 3573DOPC   D2A42138  21.189   4.414  14.592
 3573DOPC   C3A42139  21.189   4.274  14.202
 3573DOPC   C4A42140  21.099   4.194  13.742
 3573DOPC   C1B42141  20.629   4.114  14.612
 3573DOPC   D2B42142  20.769   4.004  14.172
 3573DOPC   C3B42143  20.569   4.134  13.782
 3573DOPC   C4B42144  20.209   4.464  13.692
 3574DOPC   NC342145  23.509   4.914  11.492
 3574DOPC   PO442146  23.979   5.224  11.632
 3574DOPC   GL142147  24.099   5.164  12.062
 3574DOPC   GL242148  23.979   5.384  12.282
 3574DOPC   C1A42149  24.279   5.034  12.402
 3574DOPC   D2A42150  24.409   5.004  12.862
 3574DOPC   C3A42151  24.209   4.694  13.142
 3574DOPC   C4A42152  24.159   4.334  13.472
 3574DOPC   C1B42153  24.039   5.284  12.762
 3574DOPC   D2B42154  23.979   5.404  13.122
 3574DOPC   C3B42155  24.019   5.084  13.342
 3574DOPC   C4B42156  23.769   4.714  13.362
 3575DOPC   NC342157  10.879   6.084  14.962
 3575DOPC   PO442158  10.969   6.264  14.532
 3575DOPC   GL142159  11.229   6.284  14.182
 3575DOPC   GL242160  11.399   5.964  13.992
 3575DOPC   C1A42161  11.439   6.494  13.782
 3575DOPC   D2A42162  11.539   6.344  13.372
 3575DOPC   C3A42163  11.569   6.564  12.982
 3575DOPC   C4A42164  11.469   6.824  12.582
 3575DOPC   C1B42165  11.319   5.784  13.572
 3575DOPC   D2B42166  11.279   5.694  13.182
 3575DOPC   C3B42167  11.119   5.694  12.742
 3575DOPC   C4B42168  10.639   5.524  12.552
 3576DOPC   NC342169  13.179   4.184  10.792
 3576DOPC   PO442170  13.169   3.884  11.132
 3576DOPC   GL142171  13.159   4.024  11.522
 3576DOPC   GL242172  12.819   3.904  11.552
 3576DOPC   C1A42173  13.209   3.964  11.902
 3576DOPC   D2A42174  13.539   3.874  12.112
 3576DOPC   C3A42175  13.599   4.044  12.452
 3576DOPC   C4A42176  13.739   4.164  12.782
 3576DOPC   C1B42177  12.689   3.704  11.902
 3576DOPC   D2B42178  12.529   3.404  12.032
 3576DOPC   C3B42179  12.269   3.304  12.452
 3576DOPC   C4B42180  11.899   3.264  12.652
 3577DOPC   NC342181   7.649  13.214  10.852
 3577DOPC   PO442182   7.279  13.194  11.022
 3577DOPC   GL142183   7.049  13.324  11.462
 3577DOPC   GL242184   7.029  13.084  11.632
 3577DOPC   C1A42185   6.859  13.504  11.822
 3577DOPC   D2A42186   6.639  13.534  12.272
 3577DOPC   C3A42187   6.779  13.804  12.572
 3577DOPC   C4A42188   6.939  13.964  12.862
 3577DOPC   C1B42189   7.259  12.874  11.902
 3577DOPC   D2B42190   7.419  12.764  12.292
 3577DOPC   C3B42191   7.249  12.324  12.402
 3577DOPC   C4B42192   7.249  12.184  12.872
 3578DOPC   NC342193  24.089   0.824  15.612
 3578DOPC   PO442194  23.879   0.594  15.972
 3578DOPC   GL142195  23.729   0.564  15.462
 3578DOPC   GL242196  23.489   0.824  15.332
 3578DOPC   C1A42197  23.669   0.504  15.042
 3578DOPC   D2A42198  23.779   0.654  14.662
 3578DOPC   C3A42199  23.969   0.524  14.262
 3578DOPC   C4A42200  24.309   0.594  14.032
 3578DOPC   C1B42201  23.779   1.004  15.062
 3578DOPC   D2B42202  24.119   1.274  14.962
 3578DOPC   C3B42203  24.309   1.044  14.712
 3578DOPC   C4B42204  24.509   0.694  14.592
 3579DOPC   NC342205   5.279   4.354  11.092
 3579DOPC   PO442206   5.139   4.044  11.432
 3579DOPC   GL142207   5.269   4.024  11.832
 3579DOPC   GL242208   5.329   3.704  11.812
 3579DOPC   C1A42209   5.229   4.014  12.322
 3579DOPC   D2A42210   4.969   4.044  12.682
 3579DOPC   C3A42211   5.109   4.134  13.012
 3579DOPC   C4A42212   5.339   3.954  13.232
 3579DOPC   C1B42213   5.649   3.684  12.092
 3579DOPC   D2B42214   5.849   3.814  12.412
 3579DOPC   C3B42215   6.039   4.174  12.512
 3579DOPC   C4B42216   6.309   4.344  12.862
 3580DOPC   NC342217  18.269   5.614  11.552
 3580DOPC   PO442218  18.559   5.364  11.382
 3580DOPC   GL142219  18.729   5.554  11.732
 3580DOPC   GL242220  19.029   5.464  11.762
 3580DOPC   C1A42221  18.629   5.674  12.102
 3580DOPC   D2A42222  18.629   6.074  12.322
 3580DOPC   C3A42223  18.619   6.074  12.732
 3580DOPC   C4A42224  18.399   6.164  13.042
 3580DOPC   C1B42225  18.939   5.284  12.162
 3580DOPC   D2B42226  18.749   5.364  12.522
 3580DOPC   C3B42227  18.379   5.224  12.652
 3580DOPC   C4B42228  18.019   5.034  12.892
 3581DOPC   NC342229   8.819  22.291  11.432
 3581DOPC   PO442230   8.699  21.851  11.212
 3581DOPC   GL142231   8.859  21.731  11.552
 3581DOPC   GL242232   8.959  21.911  11.832
 3581DOPC   C1A42233   8.949  21.284  11.742
 3581DOPC   D2A42234   8.979  21.034  12.102
 3581DOPC   C3A42235   8.729  20.744  12.412
 3581DOPC   C4A42236   8.659  20.574  12.852
 3581DOPC   C1B42237   9.039  22.071  12.332
 3581DOPC   D2B42238   8.979  22.181  12.772
 3581DOPC   C3B42239   8.709  22.001  13.152
 3581DOPC   C4B42240   8.589  21.521  13.302
 3582DOPC   NC342241   7.309   2.064  14.732
 3582DOPC   PO442242   7.149   1.814  15.092
 3582DOPC   GL142243   7.019   1.594  14.802
 3582DOPC   GL242244   6.709   1.714  14.702
 3582DOPC   C1A42245   7.009   1.424  14.362
 3582DOPC   D2A42246   6.849   1.174  14.102
 3582DOPC   C3A42247   6.859   1.414  13.692
 3582DOPC   C4A42248   6.699   1.654  13.392
 3582DOPC   C1B42249   6.329   1.524  14.802
 3582DOPC   D2B42250   6.149   1.304  14.452
 3582DOPC   C3B42251   6.059   1.414  13.982
 3582DOPC   C4B42252   6.399   1.634  13.722
 3583DOPC   NC342253   9.699  15.824  10.962
 3583DOPC   PO442254  10.169  15.994  11.072
 3583DOPC   GL142255  10.329  16.314  11.352
 3583DOPC   GL242256  10.129  16.384  11.562
 3583DOPC   C1A42257  10.409  16.734  11.532
 3583DOPC   D2A42258  10.529  16.954  11.942
 3583DOPC   C3A42259  10.579  16.884  12.412
 3583DOPC   C4A42260  10.859  16.874  12.792
 3583DOPC   C1B42261  10.039  16.034  11.832
 3583DOPC   D2B42262  10.379  15.824  12.022
 3583DOPC   C3B42263  10.559  15.904  12.342
 3583DOPC   C4B42264  10.739  16.294  12.332
 3584DOPC   NC342265   3.879  22.991  11.942
 3584DOPC   PO442266   4.079  23.451  11.752
 3584DOPC   GL142267   4.089  23.421  12.232
 3584DOPC   GL242268   3.759  23.161  12.422
 3584DOPC   C1A42269   4.189  23.501  12.662
 3584DOPC   D2A42270   4.659  23.641  12.822
 3584DOPC   C3A42271   4.559  23.701  13.292
 3584DOPC   C4A42272   4.589  23.901  13.772
 3584DOPC   C1B42273   3.759  23.331  12.942
 3584DOPC   D2B42274   3.479  23.611  13.092
 3584DOPC   C3B42275   3.099  23.501  13.272
 3584DOPC   C4B42276   2.679  23.681  13.382
 3585DOPC   NC342277   6.329  21.881  11.542
 3585DOPC   PO442278   6.639  22.191  11.702
 3585DOPC   GL142279   6.659  22.321  12.072
 3585DOPC   GL242280   6.639  22.621  12.122
 3585DOPC   C1A42281   6.509  22.161  12.452
 3585DOPC   D2A42282   6.489  22.061  12.912
 3585DOPC   C3A42283   6.249  21.781  13.252
 3585DOPC   C4A42284   6.109  21.521  13.642
 3585DOPC   C1B42285   6.399  22.621  12.562
 3585DOPC   D2B42286   6.109  22.541  12.962
 3585DOPC   C3B42287   5.759  22.441  13.012
 3585DOPC   C4B42288   5.459  22.191  13.262
 3586DOPC   NC342289   2.789  17.994  15.762
 3586DOPC   PO442290   3.079  17.594  15.742
 3586DOPC   GL142291   3.329  17.834  15.462
 3586DOPC   GL242292   3.229  18.054  15.332
 3586DOPC   C1A42293   3.529  17.674  15.002
 3586DOPC   D2A42294   3.479  17.644  14.662
 3586DOPC   C3A42295   3.529  17.494  14.232
 3586DOPC   C4A42296   3.629  17.454  13.842
 3586DOPC   C1B42297   3.509  18.174  15.022
 3586DOPC   D2B42298   3.719  18.144  14.642
 3586DOPC   C3B42299   3.929  17.874  14.472
 3586DOPC   C4B42300   3.979  17.334  14.662
 3587DOPC   NC342301  11.549  11.704  10.392
 3587DOPC   PO442302  11.869  12.064  10.522
 3587DOPC   GL142303  12.089  12.214  10.802
 3587DOPC   GL242304  12.379  12.034  10.802
 3587DOPC   C1A42305  12.009  12.394  11.182
 3587DOPC   D2A42306  11.879  12.634  11.472
 3587DOPC   C3A42307  12.179  12.774  11.862
 3587DOPC   C4A42308  12.589  12.734  12.082
 3587DOPC   C1B42309  12.259  11.884  11.162
 3587DOPC   D2B42310  12.469  11.844  11.422
 3587DOPC   C3B42311  12.609  11.464  11.542
 3587DOPC   C4B42312  12.459  11.164  11.942
 3588DOPC   NC342313   6.239  22.521  11.752
 3588DOPC   PO442314   5.979  22.231  11.812
 3588DOPC   GL142315   6.169  22.061  12.072
 3588DOPC   GL242316   6.329  21.821  12.022
 3588DOPC   C1A42317   5.959  21.841  12.442
 3588DOPC   D2A42318   6.069  21.581  12.822
 3588DOPC   C3A42319   5.779  21.591  13.162
 3588DOPC   C4A42320   5.579  21.751  13.502
 3588DOPC   C1B42321   6.489  21.631  12.432
 3588DOPC   D2B42322   6.559  21.531  12.932
 3588DOPC   C3B42323   6.289  21.234  13.022
 3588DOPC   C4B42324   5.869  21.164  13.362
 3589DOPC   NC342325  10.199   3.924  10.152
 3589DOPC   PO442326   9.949   3.664  10.462
 3589DOPC   GL142327  10.019   3.604  10.922
 3589DOPC   GL242328   9.739   3.444  11.192
 3589DOPC   C1A42329  10.199   3.724  11.262
 3589DOPC   D2A42330  10.159   4.144  11.542
 3589DOPC   C3A42331  10.019   4.184  11.942
 3589DOPC   C4A42332  10.149   4.214  12.422
 3589DOPC   C1B42333   9.959   3.294  11.592
 3589DOPC   D2B42334  10.359   3.324  11.852
 3589DOPC   C3B42335  10.469   3.504  12.272
 3589DOPC   C4B42336  10.269   3.334  12.622
 3590DOPC   NC342337  23.979   5.694  11.802
 3590DOPC   PO442338  23.569   5.864  11.772
 3590DOPC   GL142339  23.589   6.004  12.092
 3590DOPC   GL242340  23.929   6.014  12.212
 3590DOPC   C1A42341  23.489   6.064  12.502
 3590DOPC   D2A42342  23.689   6.354  12.762
 3590DOPC   C3A42343  23.569   6.474  13.162
 3590DOPC   C4A42344  23.309   6.434  13.512
 3590DOPC   C1B42345  23.899   5.764  12.582
 3590DOPC   D2B42346  23.619   5.754  12.992
 3590DOPC   C3B42347  23.719   6.054  13.352
 3590DOPC   C4B42348  23.789   6.324  13.672
 3591DOPC   NC342349   2.169  15.164  11.732
 3591DOPC   PO442350   1.779  15.404  11.742
 3591DOPC   GL142351   1.809  15.294  12.092
 3591DOPC   GL242352   2.119  15.424  12.252
 3591DOPC   C1A42353   1.799  15.124  12.502
 3591DOPC   D2A42354   1.659  14.714  12.802
 3591DOPC   C3A42355   1.449  14.294  12.822
 3591DOPC   C4A42356   1.529  13.754  12.932
 3591DOPC   C1B42357   2.289  15.154  12.562
 3591DOPC   D2B42358   2.669  14.874  12.642
 3591DOPC   C3B42359   3.039  15.064  12.962
 3591DOPC   C4B42360   3.399  14.994  13.222
 3592DOPC   NC342361   6.709  17.864  11.432
 3592DOPC   PO442362   6.849  18.224  11.422
 3592DOPC   GL142363   7.109  18.414  11.932
 3592DOPC   GL242364   7.259  18.174  12.222
 3592DOPC   C1A42365   7.089  18.714  12.262
 3592DOPC   D2A42366   7.359  19.054  12.262
 3592DOPC   C3A42367   7.169  19.374  12.552
 3592DOPC   C4A42368   7.039  19.634  12.912
 3592DOPC   C1B42369   7.469  17.934  12.572
 3592DOPC   D2B42370   7.739  17.704  12.812
 3592DOPC   C3B42371   7.529  17.264  12.842
 3592DOPC   C4B42372   7.209  17.024  12.782
 3593DOPC   NC342373   1.939   2.624  11.402
 3593DOPC   PO442374   2.039   2.494  11.742
 3593DOPC   GL142375   1.809   2.484  12.132
 3593DOPC   GL242376   2.119   2.684  12.332
 3593DOPC   C1A42377   1.659   2.624  12.532
 3593DOPC   D2A42378   1.349   2.804  12.882
 3593DOPC   C3A42379   1.329   2.684  13.372
 3593DOPC   C4A42380   1.419   2.714  13.732
 3593DOPC   C1B42381   2.199   2.734  12.732
 3593DOPC   D2B42382   2.499   2.784  13.032
 3593DOPC   C3B42383   2.489   2.354  13.392
 3593DOPC   C4B42384   2.349   1.964  13.602
 3594DOPC   NC342385  15.919  24.441  11.742
 3594DOPC   PO442386  15.949  24.841  11.992
 3594DOPC   GL142387  15.779  25.031  12.332
 3594DOPC   GL242388  15.759  25.431  12.412
 3594DOPC   C1A42389  15.429  24.811  12.632
 3594DOPC   D2A42390  15.309  24.801  13.012
 3594DOPC   C3A42391  15.059  25.101  13.282
 3594DOPC   C4A42392  14.839  25.521  13.292
 3594DOPC   C1B42393  15.319  25.731  12.652
 3594DOPC   D2B42394  15.149  25.611  12.952
 3594DOPC   C3B42395  14.879  25.321  12.812
 3594DOPC   C4B42396  14.929  24.901  12.712
 3595DOPC   NC342397  10.979   4.264  10.292
 3595DOPC   PO442398  11.369   4.154  10.542
 3595DOPC   GL142399  11.219   4.064  10.852
 3595DOPC   GL242400  10.849   4.104  10.752
 3595DOPC   C1A42401  11.179   4.304  11.252
 3595DOPC   D2A42402  11.459   4.534  11.482
 3595DOPC   C3A42403  11.719   4.414  11.712
 3595DOPC   C4A42404  11.969   4.544  12.052
 3595DOPC   C1B42405  10.649   4.104  11.122
 3595DOPC   D2B42406  10.749   4.294  11.542
 3595DOPC   C3B42407  11.119   4.304  11.792
 3595DOPC   C4B42408  11.409   4.214  12.122
 3596DOPC   NC342409  12.899  12.714  10.402
 3596DOPC   PO442410  13.269  12.514  10.542
 3596DOPC   GL142411  12.889  12.304  10.712
 3596DOPC   GL242412  12.899  12.044  10.622
 3596DOPC   C1A42413  12.629  12.364  11.142
 3596DOPC   D2A42414  12.369  12.314  11.512
 3596DOPC   C3A42415  12.529  12.014  11.862
 3596DOPC   C4A42416  12.519  11.664  12.102
 3596DOPC   C1B42417  12.939  11.814  11.052
 3596DOPC   D2B42418  13.089  11.794  11.362
 3596DOPC   C3B42419  13.459  11.944  11.472
 3596DOPC   C4B42420  13.839  12.234  11.562
 3597DOPC   NC342421  22.849  23.141  16.402
 3597DOPC   PO442422  22.649  22.751  16.162
 3597DOPC   GL142423  22.679  23.041  15.922
 3597DOPC   GL242424  22.969  23.291  15.952
 3597DOPC   C1A42425  22.709  23.201  15.482
 3597DOPC   D2A42426  22.609  23.401  15.102
 3597DOPC   C3A42427  22.479  23.101  14.712
 3597DOPC   C4A42428  22.609  23.111  14.272
 3597DOPC   C1B42429  22.999  23.581  15.622
 3597DOPC   D2B42430  23.119  24.011  15.422
 3597DOPC   C3B42431  23.569  24.041  15.142
 3597DOPC   C4B42432  23.939  24.141  15.262
 3598DOPC   NC342433  21.209   9.944  15.472
 3598DOPC   PO442434  21.149  10.054  15.142
 3598DOPC   GL142435  21.109  10.044  14.732
 3598DOPC   GL242436  20.969   9.984  14.632
 3598DOPC   C1A42437  21.499  10.054  14.452
 3598DOPC   D2A42438  21.799  10.024  14.152
 3598DOPC   C3A42439  21.769   9.974  13.712
 3598DOPC   C4A42440  22.009   9.934  13.402
 3598DOPC   C1B42441  21.079  10.144  14.222
 3598DOPC   D2B42442  21.009  10.094  13.782
 3598DOPC   C3B42443  20.849  10.524  13.672
 3598DOPC   C4B42444  20.729  10.914  13.512
 3599DOPC   NC342445   3.199  11.364  14.952
 3599DOPC   PO442446   3.559  11.744  15.152
 3599DOPC   GL142447   3.299  11.804  14.742
 3599DOPC   GL242448   3.209  12.124  14.582
 3599DOPC   C1A42449   3.559  11.804  14.362
 3599DOPC   D2A42450   3.909  11.714  13.962
 3599DOPC   C3A42451   3.919  11.934  13.562
 3599DOPC   C4A42452   3.639  12.204  13.332
 3599DOPC   C1B42453   3.149  12.204  14.092
 3599DOPC   D2B42454   2.939  12.314  13.762
 3599DOPC   C3B42455   3.189  12.334  13.482
 3599DOPC   C4B42456   3.229  12.014  13.162
 3600DOPC   NC342457  13.809   5.914  10.912
 3600DOPC   PO442458  13.849   5.514  11.052
 3600DOPC   GL142459  13.789   5.454  11.522
 3600DOPC   GL242460  13.999   5.264  11.612
 3600DOPC   C1A42461  13.569   5.454  11.842
 3600DOPC   D2A42462  13.529   5.644  12.192
 3600DOPC   C3A42463  13.129   5.464  12.372
 3600DOPC   C4A42464  12.769   5.364  12.302
 3600DOPC   C1B42465  13.999   5.144  11.942
 3600DOPC   D2B42466  14.159   5.164  12.362
 3600DOPC   C3B42467  13.949   5.024  12.722
 3600DOPC   C4B42468  13.739   4.664  12.992
 3601DOPC   NC342469  24.299  21.541  15.792
 3601DOPC   PO442470  23.909  21.441  15.612
 3601DOPC   GL142471  23.999  21.621  15.312
 3601DOPC   GL242472  24.379  21.761  15.312
 3601DOPC   C1A42473  23.699  21.801  14.952
 3601DOPC   D2A42474  23.719  22.001  14.562
 3601DOPC   C3A42475  23.369  22.261  14.612
 3601DOPC   C4A42476  23.229  22.661  14.722
 3601DOPC   C1B42477  24.379  21.571  14.962
 3601DOPC   D2B42478  24.079  21.601  14.642
 3601DOPC   C3B42479  24.129  21.541  14.272
 3601DOPC   C4B42480  24.029  21.304  13.942
 3602DOPC   NC342481  17.789  15.404  11.362
 3602DOPC   PO442482  18.179  15.644  11.602
 3602DOPC   GL142483  18.279  15.484  12.082
 3602DOPC   GL242484  18.019  15.564  12.212
 3602DOPC   C1A42485  18.239  15.284  12.552
 3602DOPC   D2A42486  18.069  15.294  12.972
 3602DOPC   C3A42487  18.279  14.974  13.292
 3602DOPC   C4A42488  18.199  14.914  13.742
 3602DOPC   C1B42489  17.779  15.314  12.462
 3602DOPC   D2B42490  17.529  15.014  12.592
 3602DOPC   C3B42491  17.199  15.014  12.942
 3602DOPC   C4B42492  16.789  15.094  12.872
 3603DOPC   NC342493   8.179  11.684  10.302
 3603DOPC   PO442494   8.299  11.614  10.752
 3603DOPC   GL142495   8.449  11.714  11.162
 3603DOPC   GL242496   8.079  11.734  11.222
 3603DOPC   C1A42497   8.679  11.944  11.472
 3603DOPC   D2A42498   8.929  11.774  11.772
 3603DOPC   C3A42499   9.189  11.954  12.262
 3603DOPC   C4A42500   9.529  11.844  12.512
 3603DOPC   C1B42501   7.939  11.394  11.542
 3603DOPC   D2B42502   7.859  10.924  11.592
 3603DOPC   C3B42503   7.729  10.614  11.812
 3603DOPC   C4B42504   7.499  10.244  12.002
 3604DOPC   NC342505  24.199  23.631  16.362
 3604DOPC   PO442506  23.829  23.401  16.502
 3604DOPC   GL142507  23.749  23.491  16.132
 3604DOPC   GL242508  23.979  23.401  15.912
 3604DOPC   C1A42509  23.499  23.211  15.742
 3604DOPC   D2A42510  23.199  22.961  15.582
 3604DOPC   C3A42511  23.119  23.031  15.172
 3604DOPC   C4A42512  22.949  23.001  14.842
 3604DOPC   C1B42513  23.929  23.111  15.552
 3604DOPC   D2B42514  23.679  22.901  15.332
 3604DOPC   C3B42515  23.579  22.991  14.932
 3604DOPC   C4B42516  23.589  23.111  14.512
 3605DOPC   NC342517   2.839   0.854  15.212
 3605DOPC   PO442518   2.499   1.084  15.332
 3605DOPC   GL142519   2.269   1.194  14.932
 3605DOPC   GL242520   1.979   1.204  14.902
 3605DOPC   C1A42521   2.179   1.184  14.402
 3605DOPC   D2A42522   1.929   1.184  14.002
 3605DOPC   C3A42523   1.479   1.164  14.012
 3605DOPC   C4A42524   1.169   0.844  14.042
 3605DOPC   C1B42525   1.659   1.324  14.612
 3605DOPC   D2B42526   1.319   1.554  14.462
 3605DOPC   C3B42527   1.319   1.704  14.032
 3605DOPC   C4B42528   1.379   1.724  13.612
 3606DOPC   NC342529  16.319   7.664  10.762
 3606DOPC   PO442530  15.979   7.574  10.972
 3606DOPC   GL142531  15.699   7.684  11.372
 3606DOPC   GL242532  15.419   7.924  11.432
 3606DOPC   C1A42533  15.579   7.664  11.842
 3606DOPC   D2A42534  15.959   7.694  12.132
 3606DOPC   C3A42535  15.939   7.614  12.552
 3606DOPC   C4A42536  15.899   7.374  12.922
 3606DOPC   C1B42537  15.559   8.224  11.782
 3606DOPC   D2B42538  15.769   8.224  12.082
 3606DOPC   C3B42539  15.719   8.204  12.552
 3606DOPC   C4B42540  15.499   7.934  12.782
 3607DOPC   NC342541  13.559   3.404  14.512
 3607DOPC   PO442542  13.559   3.844  14.392
 3607DOPC   GL142543  13.419   3.654  14.002
 3607DOPC   GL242544  13.349   3.284  14.042
 3607DOPC   C1A42545  13.739   3.484  13.702
 3607DOPC   D2A42546  14.149   3.544  13.742
 3607DOPC   C3A42547  14.219   3.604  13.362
 3607DOPC   C4A42548  13.989   3.834  13.122
 3607DOPC   C1B42549  13.109   3.294  13.642
 3607DOPC   D2B42550  12.949   3.564  13.212
 3607DOPC   C3B42551  13.429   3.484  12.892
 3607DOPC   C4B42552  13.599   3.194  12.672
 3608DOPC   NC342553   4.459   1.904  11.882
 3608DOPC   PO442554   4.469   2.294  11.642
 3608DOPC   GL142555   4.359   2.344  12.092
 3608DOPC   GL242556   4.129   2.094  12.212
 3608DOPC   C1A42557   4.229   2.574  12.482
 3608DOPC   D2A42558   4.019   2.934  12.662
 3608DOPC   C3A42559   3.869   2.784  13.002
 3608DOPC   C4A42560   3.549   2.584  13.352
 3608DOPC   C1B42561   4.109   2.064  12.562
 3608DOPC   D2B42562   4.319   2.044  12.932
 3608DOPC   C3B42563   4.229   1.714  13.112
 3608DOPC   C4B42564   4.219   1.574  13.452
 3609DOPC   NC342565  20.579  11.274  15.302
 3609DOPC   PO442566  20.369  11.044  15.012
 3609DOPC   GL142567  20.129  11.044  14.732
 3609DOPC   GL242568  19.939  11.204  14.542
 3609DOPC   C1A42569  19.989  10.654  14.502
 3609DOPC   D2A42570  20.129  10.414  14.212
 3609DOPC   C3A42571  19.989  10.284  13.822
 3609DOPC   C4A42572  20.059  10.164  13.452
 3609DOPC   C1B42573  20.099  10.964  14.172
 3609DOPC   D2B42574  20.239  11.194  13.732
 3609DOPC   C3B42575  20.629  11.394  13.722
 3609DOPC   C4B42576  20.809  11.694  13.392
 3610DOPC   NC342577  11.779   6.974  10.642
 3610DOPC   PO442578  11.719   6.534  10.762
 3610DOPC   GL142579  11.769   6.604  11.172
 3610DOPC   GL242580  11.409   6.634  11.322
 3610DOPC   C1A42581  11.949   6.404  11.512
 3610DOPC   D2A42582  12.179   6.644  11.732
 3610DOPC   C3A42583  12.379   6.684  12.192
 3610DOPC   C4A42584  12.689   6.764  12.492
 3610DOPC   C1B42585  11.069   6.534  11.552
 3610DOPC   D2B42586  11.059   6.214  11.942
 3610DOPC   C3B42587  10.989   6.074  12.432
 3610DOPC   C4B42588  10.689   5.974  12.772
 3611DOPC   NC342589   1.989   1.174  11.892
 3611DOPC   PO442590   2.099   0.734  11.992
 3611DOPC   GL142591   1.729   0.914  12.282
 3611DOPC   GL242592   1.679   1.224  12.302
 3611DOPC   C1A42593   1.589   0.954  12.752
 3611DOPC   D2A42594   1.389   1.044  13.162
 3611DOPC   C3A42595   1.619   1.134  13.542
 3611DOPC   C4A42596   1.859   1.574  13.712
 3611DOPC   C1B42597   1.269   1.234  12.482
 3611DOPC   D2B42598   0.999   1.144  12.792
 3611DOPC   C3B42599   0.999   0.754  12.852
 3611DOPC   C4B42600   1.339   0.524  12.962
 3612DOPC   NC342601   3.169   1.304  11.302
 3612DOPC   PO442602   3.149   1.624  11.432
 3612DOPC   GL142603   3.109   1.474  11.782
 3612DOPC   GL242604   3.469   1.364  11.752
 3612DOPC   C1A42605   3.189   1.164  12.192
 3612DOPC   D2A42606   3.069   0.984  12.682
 3612DOPC   C3A42607   3.409   0.744  12.712
 3612DOPC   C4A42608   3.509   0.274  12.702
 3612DOPC   C1B42609   3.709   1.254  12.002
 3612DOPC   D2B42610   3.999   0.904  12.322
 3612DOPC   C3B42611   3.989   1.024  12.802
 3612DOPC   C4B42612   4.289   1.254  13.062
 3613DOPC   NC342613  22.079   1.414  12.252
 3613DOPC   PO442614  21.809   1.644  12.082
 3613DOPC   GL142615  21.719   1.504  12.552
 3613DOPC   GL242616  21.429   1.614  12.602
 3613DOPC   C1A42617  21.889   1.224  12.862
 3613DOPC   D2A42618  22.119   1.044  13.012
 3613DOPC   C3A42619  22.249   0.574  13.182
 3613DOPC   C4A42620  22.569   0.224  13.202
 3613DOPC   C1B42621  21.599   1.684  13.042
 3613DOPC   D2B42622  21.689   1.654  13.462
 3613DOPC   C3B42623  21.579   1.444  13.892
 3613DOPC   C4B42624  21.549   1.184  14.362
 3614DOPC   NC342625  20.679   4.004  11.782
 3614DOPC   PO442626  20.229   4.194  11.772
 3614DOPC   GL142627  20.369   3.984  12.182
 3614DOPC   GL242628  20.219   3.644  12.202
 3614DOPC   C1A42629  20.339   3.934  12.622
 3614DOPC   D2A42630  20.169   4.044  12.972
 3614DOPC   C3A42631  20.329   3.994  13.392
 3614DOPC   C4A42632  20.259   3.684  13.682
 3614DOPC   C1B42633  19.819   3.464  12.422
 3614DOPC   D2B42634  19.829   3.164  12.842
 3614DOPC   C3B42635  19.959   2.774  12.782
 3614DOPC   C4B42636  20.169   2.404  12.962
 3615DOPC   NC342637  20.829   1.964  15.862
 3615DOPC   PO442638  21.309   1.924  15.702
 3615DOPC   GL142639  21.459   1.824  15.412
 3615DOPC   GL242640  21.849   1.954  15.362
 3615DOPC   C1A42641  21.519   1.904  14.992
 3615DOPC   D2A42642  21.319   2.114  14.662
 3615DOPC   C3A42643  20.889   1.964  14.562
 3615DOPC   C4A42644  20.789   1.534  14.462
 3615DOPC   C1B42645  22.059   1.754  15.062
 3615DOPC   D2B42646  22.219   1.524  14.732
 3615DOPC   C3B42647  21.989   1.144  14.572
 3615DOPC   C4B42648  21.969   0.744  14.662
 3616DOPC   NC342649  21.209   5.024  15.712
 3616DOPC   PO442650  20.749   5.184  15.472
 3616DOPC   GL142651  20.939   5.244  15.002
 3616DOPC   GL242652  20.939   4.834  15.112
 3616DOPC   C1A42653  21.219   5.414  14.772
 3616DOPC   D2A42654  21.429   5.744  14.572
 3616DOPC   C3A42655  21.639   5.614  14.172
 3616DOPC   C4A42656  21.659   5.784  13.712
 3616DOPC   C1B42657  20.749   4.594  14.802
 3616DOPC   D2B42658  20.779   4.554  14.402
 3616DOPC   C3B42659  20.979   4.814  14.152
 3616DOPC   C4B42660  21.399   4.714  14.212
 3617DOPC   NC342661   3.319  22.441  11.322
 3617DOPC   PO442662   3.359  22.221  11.782
 3617DOPC   GL142663   3.169  22.251  12.182
 3617DOPC   GL242664   3.029  22.571  12.312
 3617DOPC   C1A42665   3.299  22.161  12.602
 3617DOPC   D2A42666   3.279  22.311  12.942
 3617DOPC   C3A42667   3.009  22.211  13.332
 3617DOPC   C4A42668   3.029  21.911  13.652
 3617DOPC   C1B42669   2.879  22.631  12.732
 3617DOPC   D2B42670   2.609  22.561  13.142
 3617DOPC   C3B42671   2.239  22.661  13.232
 3617DOPC   C4B42672   1.959  22.491  13.472
 3618DOPC   NC342673  13.729  19.054  10.812
 3618DOPC   PO442674  13.389  19.204  11.002
 3618DOPC   GL142675  13.279  19.264  11.392
 3618DOPC   GL242676  13.209  19.534  11.482
 3618DOPC   C1A42677  13.119  19.304  11.872
 3618DOPC   D2A42678  12.909  19.334  12.292
 3618DOPC   C3A42679  12.889  19.234  12.752
 3618DOPC   C4A42680  12.769  19.164  13.172
 3618DOPC   C1B42681  13.539  19.494  11.782
 3618DOPC   D2B42682  13.549  19.134  12.192
 3618DOPC   C3B42683  13.419  19.334  12.602
 3618DOPC   C4B42684  13.539  19.724  12.802
 3619DOPC   NC342685   0.599   5.384  11.502
 3619DOPC   PO442686   0.169   5.414  11.502
 3619DOPC   GL142687   0.409   5.604  11.902
 3619DOPC   GL242688   0.699   5.824  11.932
 3619DOPC   C1A42689   0.729   5.524  12.332
 3619DOPC   D2A42690   0.789   5.264  12.742
 3619DOPC   C3A42691   1.159   5.014  12.952
 3619DOPC   C4A42692   1.399   4.964  13.312
 3619DOPC   C1B42693   0.339   5.934  12.282
 3619DOPC   D2B42694   0.219   5.654  12.632
 3619DOPC   C3B42695   0.469   5.574  13.012
 3619DOPC   C4B42696   0.709   5.544  13.472
 3620DOPC   NC342697  12.539   6.444  10.732
 3620DOPC   PO442698  12.669   6.934  10.572
 3620DOPC   GL142699  12.529   7.134  10.902
 3620DOPC   GL242700  12.669   7.434  10.862
 3620DOPC   C1A42701  12.479   7.064  11.432
 3620DOPC   D2A42702  12.619   6.894  11.822
 3620DOPC   C3A42703  12.929   7.184  11.832
 3620DOPC   C4A42704  13.299   7.224  11.652
 3620DOPC   C1B42705  12.719   7.534  11.292
 3620DOPC   D2B42706  12.609   7.634  11.792
 3620DOPC   C3B42707  12.869   7.884  12.152
 3620DOPC   C4B42708  12.809   8.234  12.482
 3621DOPC   NC342709  13.489  22.851  15.482
 3621DOPC   PO442710  13.499  23.201  15.322
 3621DOPC   GL142711  13.499  23.301  15.012
 3621DOPC   GL242712  13.209  23.171  14.822
 3621DOPC   C1A42713  13.569  23.611  14.772
 3621DOPC   D2A42714  13.409  23.721  14.272
 3621DOPC   C3A42715  13.739  23.581  14.002
 3621DOPC   C4A42716  13.909  23.241  13.922
 3621DOPC   C1B42717  13.299  22.711  14.662
 3621DOPC   D2B42718  13.479  22.311  14.552
 3621DOPC   C3B42719  13.449  22.291  14.122
 3621DOPC   C4B42720  13.469  22.331  13.672
 3622DOPC   NC342721   8.119  15.814  10.342
 3622DOPC   PO442722   7.949  15.744  10.822
 3622DOPC   GL142723   7.949  15.454  11.142
 3622DOPC   GL242724   8.109  15.634  11.452
 3622DOPC   C1A42725   7.659  15.324  11.432
 3622DOPC   D2A42726   7.299  15.244  11.612
 3622DOPC   C3A42727   7.199  15.194  11.962
 3622DOPC   C4A42728   7.139  15.344  12.302
 3622DOPC   C1B42729   7.999  15.764  11.832
 3622DOPC   D2B42730   7.839  15.904  12.172
 3622DOPC   C3B42731   7.839  15.734  12.562
 3622DOPC   C4B42732   8.189  15.764  12.912
 3623DOPC   NC342733   7.709   1.254  15.312
 3623DOPC   PO442734   7.909   0.854  15.192
 3623DOPC   GL142735   7.719   0.944  14.832
 3623DOPC   GL242736   7.629   0.734  14.652
 3623DOPC   C1A42737   7.689   1.334  14.512
 3623DOPC   D2A42738   7.509   1.464  14.172
 3623DOPC   C3A42739   7.309   1.294  13.872
 3623DOPC   C4A42740   7.079   0.904  13.762
 3623DOPC   C1B42741   7.839   0.424  14.312
 3623DOPC   D2B42742   8.039   0.194  14.042
 3623DOPC   C3B42743   8.159   0.464  13.632
 3623DOPC   C4B42744   8.509   0.684  13.582
 3624DOPC   NC342745  21.469  12.264  15.442
 3624DOPC   PO442746  21.729  11.814  15.282
 3624DOPC   GL142747  21.609  11.874  14.942
 3624DOPC   GL242748  21.299  11.904  14.832
 3624DOPC   C1A42749  21.879  12.184  14.522
 3624DOPC   D2A42750  22.069  12.214  14.132
 3624DOPC   C3A42751  21.919  12.114  13.642
 3624DOPC   C4A42752  21.479  12.014  13.442
 3624DOPC   C1B42753  21.369  11.994  14.362
 3624DOPC   D2B42754  21.559  12.054  13.992
 3624DOPC   C3B42755  22.009  11.744  14.082
 3624DOPC   C4B42756  22.359  11.464  13.852
 3625DOPC   NC342757  23.259   2.704  12.052
 3625DOPC   PO442758  23.169   2.264  12.322
 3625DOPC   GL142759  23.109   2.554  12.562
 3625DOPC   GL242760  22.999   2.814  12.492
 3625DOPC   C1A42761  23.409   2.634  12.842
 3625DOPC   D2A42762  23.769   2.564  13.152
 3625DOPC   C3A42763  23.859   2.884  13.442
 3625DOPC   C4A42764  24.199   2.944  13.752
 3625DOPC   C1B42765  22.819   2.884  12.872
 3625DOPC   D2B42766  22.649   2.684  13.212
 3625DOPC   C3B42767  22.759   2.954  13.482
 3625DOPC   C4B42768  22.879   3.054  13.902
 3626DOPC   NC342769  10.329  16.994  14.992
 3626DOPC   PO442770  10.789  17.114  15.042
 3626DOPC   GL142771  10.679  16.904  14.562
 3626DOPC   GL242772  10.799  17.094  14.442
 3626DOPC   C1A42773  10.409  16.574  14.332
 3626DOPC   D2A42774  10.169  16.514  13.932
 3626DOPC   C3A42775   9.779  16.644  13.872
 3626DOPC   C4A42776   9.419  16.874  14.012
 3626DOPC   C1B42777  10.609  16.964  14.082
 3626DOPC   D2B42778  10.869  17.004  13.822
 3626DOPC   C3B42779  10.789  16.964  13.402
 3626DOPC   C4B42780  10.579  17.164  13.082
 3627DOPC   NC342781   0.409  20.764  15.402
 3627DOPC   PO442782   0.799  20.924  15.442
 3627DOPC   GL142783   0.659  21.094  15.032
 3627DOPC   GL242784   0.559  20.794  14.822
 3627DOPC   C1A42785   0.809  21.184  14.672
 3627DOPC   D2A42786   0.859  21.344  14.322
 3627DOPC   C3A42787   1.159  21.054  14.112
 3627DOPC   C4A42788   1.279  21.004  13.602
 3627DOPC   C1B42789   0.249  20.594  14.612
 3627DOPC   D2B42790  -0.019  20.384  14.282
 3627DOPC   C3B42791   0.119  20.294  13.952
 3627DOPC   C4B42792   0.199  20.454  13.652
 3628DOPC   NC342793   9.829  18.544  11.032
 3628DOPC   PO442794   9.349  18.314  11.042
 3628DOPC   GL142795   9.129  18.184  11.422
 3628DOPC   GL242796   8.849  18.344  11.612
 3628DOPC   C1A42797   9.319  18.024  11.852
 3628DOPC   D2A42798   9.689  18.004  12.232
 3628DOPC   C3A42799   9.579  17.964  12.642
 3628DOPC   C4A42800   9.549  18.154  13.032
 3628DOPC   C1B42801   8.879  18.244  12.132
 3628DOPC   D2B42802   9.289  18.314  12.352
 3628DOPC   C3B42803   9.279  18.484  12.752
 3628DOPC   C4B42804   9.339  18.734  13.272
 3629DOPC   NC342805  11.319   9.204  14.992
 3629DOPC   PO442806  11.609   9.134  14.652
 3629DOPC   GL142807  11.539   9.014  14.302
 3629DOPC   GL242808  11.749   9.004  14.022
 3629DOPC   C1A42809  11.259   8.784  14.032
 3629DOPC   D2A42810  11.059   8.364  13.752
 3629DOPC   C3A42811  11.009   8.474  13.292
 3629DOPC   C4A42812  11.229   8.774  13.042
 3629DOPC   C1B42813  11.839   9.104  13.632
 3629DOPC   D2B42814  11.849   8.834  13.212
 3629DOPC   C3B42815  12.059   8.654  12.812
 3629DOPC   C4B42816  12.159   8.574  12.462
 3630DOPC   NC342817  19.779   9.994  15.192
 3630DOPC   PO442818  20.339   9.754  15.232
 3630DOPC   GL142819  20.139   9.804  14.892
 3630DOPC   GL242820  19.799   9.834  14.712
 3630DOPC   C1A42821  20.089   9.444  14.572
 3630DOPC   D2A42822  19.829   9.254  14.282
 3630DOPC   C3A42823  19.959   8.894  14.032
 3630DOPC   C4A42824  20.309   8.704  13.802
 3630DOPC   C1B42825  19.779  10.164  14.402
 3630DOPC   D2B42826  19.589  10.364  14.152
 3630DOPC   C3B42827  19.289  10.604  13.992
 3630DOPC   C4B42828  19.119  10.934  14.242
 3631DOPC   NC342829  17.359   4.804  11.452
 3631DOPC   PO442830  17.759   4.944  11.172
 3631DOPC   GL142831  17.749   5.154  11.562
 3631DOPC   GL242832  17.449   5.284  11.752
 3631DOPC   C1A42833  17.829   5.054  12.062
 3631DOPC   D2A42834  17.889   4.814  12.462
 3631DOPC   C3A42835  17.709   4.434  12.572
 3631DOPC   C4A42836  17.759   4.104  12.852
 3631DOPC   C1B42837  17.129   5.284  12.142
 3631DOPC   D2B42838  17.189   5.544  12.552
 3631DOPC   C3B42839  17.139   6.034  12.612
 3631DOPC   C4B42840  17.109   6.314  12.332
 3632DOPC   NC342841   0.399  22.551  11.522
 3632DOPC   PO442842   0.749  22.541  11.742
 3632DOPC   GL142843   0.739  22.471  12.142
 3632DOPC   GL242844   0.489  22.541  12.272
 3632DOPC   C1A42845   0.889  22.131  12.472
 3632DOPC   D2A42846   0.659  21.971  12.792
 3632DOPC   C3A42847   0.839  22.021  13.282
 3632DOPC   C4A42848   1.119  21.981  13.702
 3632DOPC   C1B42849   0.659  22.611  12.672
 3632DOPC   D2B42850   0.769  22.441  13.022
 3632DOPC   C3B42851   0.719  22.471  13.482
 3632DOPC   C4B42852   0.429  22.751  13.742
 3633DOPC   NC342853   0.679  24.311  11.912
 3633DOPC   PO442854   0.209  24.311  11.842
 3633DOPC   GL142855   0.379  24.201  12.302
 3633DOPC   GL242856   0.689  24.261  12.432
 3633DOPC   C1A42857   0.459  24.261  12.892
 3633DOPC   D2A42858   0.549  24.421  13.262
 3633DOPC   C3A42859   0.589  24.721  13.592
 3633DOPC   C4A42860   0.509  24.741  14.072
 3633DOPC   C1B42861   0.979  24.461  12.752
 3633DOPC   D2B42862   1.429  24.531  12.892
 3633DOPC   C3B42863   1.589  24.511  13.352
 3633DOPC   C4B42864   1.699  24.591  13.722
 3634DOPC   NC342865   8.819  18.264  11.042
 3634DOPC   PO442866   8.419  18.264  11.312
 3634DOPC   GL142867   8.329  18.564  11.632
 3634DOPC   GL242868   8.409  18.364  11.912
 3634DOPC   C1A42869   8.219  18.764  12.032
 3634DOPC   D2A42870   8.379  18.854  12.452
 3634DOPC   C3A42871   8.599  18.924  12.892
 3634DOPC   C4A42872   8.749  19.254  13.132
 3634DOPC   C1B42873   8.379  18.284  12.302
 3634DOPC   D2B42874   8.749  18.304  12.612
 3634DOPC   C3B42875   8.839  18.294  13.082
 3634DOPC   C4B42876   9.189  18.284  13.372
 3635DOPC   NC342877   3.829   8.434  11.332
 3635DOPC   PO442878   3.989   7.994  11.422
 3635DOPC   GL142879   4.139   7.914  11.872
 3635DOPC   GL242880   3.969   7.594  11.972
 3635DOPC   C1A42881   4.239   8.014  12.202
 3635DOPC   D2A42882   4.249   7.934  12.692
 3635DOPC   C3A42883   4.529   8.204  12.832
 3635DOPC   C4A42884   5.009   8.354  12.822
 3635DOPC   C1B42885   3.929   7.654  12.412
 3635DOPC   D2B42886   3.709   8.024  12.662
 3635DOPC   C3B42887   3.799   8.074  13.142
 3635DOPC   C4B42888   3.829   8.184  13.592
 3636DOPC   NC342889   3.699  19.444  11.792
 3636DOPC   PO442890   4.169  19.404  11.492
 3636DOPC   GL142891   4.139  19.594  11.882
 3636DOPC   GL242892   4.429  19.824  12.072
 3636DOPC   C1A42893   3.959  19.684  12.302
 3636DOPC   D2A42894   3.709  19.674  12.742
 3636DOPC   C3A42895   3.829  19.424  13.102
 3636DOPC   C4A42896   3.879  18.964  13.042
 3636DOPC   C1B42897   4.319  20.054  12.482
 3636DOPC   D2B42898   4.339  20.194  12.842
 3636DOPC   C3B42899   4.459  20.004  13.182
 3636DOPC   C4B42900   4.779  19.734  13.292
 3637DOPC   NC342901  22.219  23.251  12.482
 3637DOPC   PO442902  21.899  23.431  12.392
 3637DOPC   GL142903  21.869  23.401  12.822
 3637DOPC   GL242904  21.839  23.141  12.972
 3637DOPC   C1A42905  21.929  23.521  13.342
 3637DOPC   D2A42906  21.609  23.631  13.622
 3637DOPC   C3A42907  21.769  23.861  13.992
 3637DOPC   C4A42908  21.939  24.171  14.292
 3637DOPC   C1B42909  21.869  22.851  13.162
 3637DOPC   D2B42910  21.889  22.751  13.552
 3637DOPC   C3B42911  22.089  22.521  13.682
 3637DOPC   C4B42912  22.079  22.221  14.052
 3638DOPC   NC342913   3.329  10.774  10.972
 3638DOPC   PO442914   3.059  11.084  11.132
 3638DOPC   GL142915   3.219  11.144  11.622
 3638DOPC   GL242916   3.449  11.344  11.792
 3638DOPC   C1A42917   3.239  10.944  12.092
 3638DOPC   D2A42918   3.089  11.034  12.562
 3638DOPC   C3A42919   2.899  11.324  12.842
 3638DOPC   C4A42920   2.469  11.364  12.892
 3638DOPC   C1B42921   3.349  11.394  12.252
 3638DOPC   D2B42922   3.259  11.644  12.722
 3638DOPC   C3B42923   3.409  11.464  13.022
 3638DOPC   C4B42924   3.859  11.224  13.132
 3639DOPC   NC342925   2.839   7.644   6.822
 3639DOPC   PO442926   2.539   8.074   6.922
 3639DOPC   GL142927   2.519   8.224   6.512
 3639DOPC   GL242928   2.769   8.414   6.432
 3639DOPC   C1A42929   2.389   8.454   6.102
 3639DOPC   D2A42930   2.199   8.484   5.772
 3639DOPC   C3A42931   2.139   8.274   5.312
 3639DOPC   C4A42932   1.979   8.034   4.962
 3639DOPC   C1B42933   3.019   8.184   6.102
 3639DOPC   D2B42934   3.179   8.364   5.832
 3639DOPC   C3B42935   3.069   8.334   5.332
 3639DOPC   C4B42936   3.059   8.444   4.952
 3640DOPC   NC342937  11.029  14.984  14.612
 3640DOPC   PO442938  10.599  14.994  14.692
 3640DOPC   GL142939  10.479  15.044  14.312
 3640DOPC   GL242940  10.739  15.084  14.152
 3640DOPC   C1A42941  10.199  15.294  13.892
 3640DOPC   D2A42942  10.199  15.264  13.482
 3640DOPC   C3A42943  10.539  15.404  13.222
 3640DOPC   C4A42944  10.839  15.464  12.942
 3640DOPC   C1B42945  11.049  14.974  13.822
 3640DOPC   D2B42946  11.379  15.234  13.692
 3640DOPC   C3B42947  11.629  15.034  13.362
 3640DOPC   C4B42948  11.759  14.634  13.292
 3641DOPC   NC342949  14.189   5.584  10.722
 3641DOPC   PO442950  14.509   5.294  10.902
 3641DOPC   GL142951  14.459   5.424  11.332
 3641DOPC   GL242952  14.289   5.604  11.302
 3641DOPC   C1A42953  14.579   5.334  11.722
 3641DOPC   D2A42954  14.599   5.484  12.202
 3641DOPC   C3A42955  14.729   5.744  12.492
 3641DOPC   C4A42956  14.449   6.004  12.742
 3641DOPC   C1B42957  14.179   5.704  11.792
 3641DOPC   D2B42958  14.009   5.664  12.122
 3641DOPC   C3B42959  14.219   5.614  12.522
 3641DOPC   C4B42960  14.449   5.424  12.872
 3642DOPC   NC342961  11.599   8.344  10.902
 3642DOPC   PO442962  11.479   8.004  10.572
 3642DOPC   GL142963  11.409   7.904  11.022
 3642DOPC   GL242964  11.029   7.774  11.202
 3642DOPC   C1A42965  11.259   8.134  11.432
 3642DOPC   D2A42966  11.039   8.214  11.822
 3642DOPC   C3A42967  11.219   8.254  12.252
 3642DOPC   C4A42968  11.189   8.384  12.682
 3642DOPC   C1B42969  11.269   7.584  11.592
 3642DOPC   D2B42970  11.619   7.304  11.732
 3642DOPC   C3B42971  11.729   7.134  12.062
 3642DOPC   C4B42972  11.849   7.154  12.522
 3643DOPC   NC342973  10.649   9.704  10.812
 3643DOPC   PO442974  11.029   9.684  10.592
 3643DOPC   GL142975  11.059   9.704  11.052
 3643DOPC   GL242976  11.269   9.924  11.042
 3643DOPC   C1A42977  11.099   9.634  11.502
 3643DOPC   D2A42978  11.139   9.774  11.862
 3643DOPC   C3A42979  11.369   9.624  12.222
 3643DOPC   C4A42980  11.539   9.354  12.432
 3643DOPC   C1B42981  10.949  10.124  11.312
 3643DOPC   D2B42982  10.709   9.964  11.732
 3643DOPC   C3B42983  10.689   9.514  11.862
 3643DOPC   C4B42984  10.879   9.154  11.642
 3644DOPC   NC342985  18.359  18.524  15.822
 3644DOPC   PO442986  18.419  18.924  15.652
 3644DOPC   GL142987  18.459  18.744  15.312
 3644DOPC   GL242988  18.589  18.474  15.442
 3644DOPC   C1A42989  18.799  18.874  15.042
 3644DOPC   D2A42990  19.159  18.934  14.732
 3644DOPC   C3A42991  19.129  18.804  14.352
 3644DOPC   C4A42992  19.149  18.334  14.172
 3644DOPC   C1B42993  19.109  18.374  15.272
 3644DOPC   D2B42994  19.379  18.694  15.132
 3644DOPC   C3B42995  19.789  18.444  15.082
 3644DOPC   C4B42996  19.999  18.224  14.772
 3645DOPC   NC342997   7.439   4.064  14.632
 3645DOPC   PO442998   6.999   3.954  14.652
 3645DOPC   GL142999   7.229   3.874  14.212
 3645DOPC   GL243000   7.339   4.064  14.122
 3645DOPC   C1A43001   7.409   3.664  13.842
 3645DOPC   D2A43002   7.379   3.694  13.362
 3645DOPC   C3A43003   7.779   3.724  13.062
 3645DOPC   C4A43004   7.939   3.454  12.752
 3645DOPC   C1B43005   7.419   4.434  13.792
 3645DOPC   D2B43006   7.469   4.784  13.392
 3645DOPC   C3B43007   7.449   4.694  12.952
 3645DOPC   C4B43008   7.709   4.614  12.622
 3646DOPC   NC343009   1.629   0.444  12.022
 3646DOPC   PO443010   1.189   0.224  12.062
 3646DOPC   GL143011   1.359   0.124  12.432
 3646DOPC   GL243012   1.539   0.344  12.502
 3646DOPC   C1A43013   1.449  -0.096  12.782
 3646DOPC   D2A43014   1.659  -0.216  13.172
 3646DOPC   C3A43015   1.629   0.174  13.392
 3646DOPC   C4A43016   1.989   0.414  13.602
 3646DOPC   C1B43017   1.799   0.254  12.922
 3646DOPC   D2B43018   2.109   0.134  13.232
 3646DOPC   C3B43019   2.399   0.354  12.912
 3646DOPC   C4B43020   2.479   0.754  12.582
 3647DOPC   NC343021   8.559  25.021  15.322
 3647DOPC   PO443022   8.749  24.831  14.892
 3647DOPC   GL143023   8.969  25.041  14.612
 3647DOPC   GL243024   9.109  24.851  14.362
 3647DOPC   C1A43025   8.839  25.221  14.202
 3647DOPC   D2A43026   8.629  25.291  13.812
 3647DOPC   C3A43027   8.289  25.501  13.712
 3647DOPC   C4A43028   7.919  25.621  13.532
 3647DOPC   C1B43029   8.989  24.761  13.912
 3647DOPC   D2B43030   9.029  24.981  13.552
 3647DOPC   C3B43031   9.419  24.971  13.312
 3647DOPC   C4B43032   9.779  24.891  13.082
 3648DOPC   NC343033  11.759  18.844  10.822
 3648DOPC   PO443034  12.169  18.704  10.732
 3648DOPC   GL143035  12.209  18.484  11.072
 3648DOPC   GL243036  11.909  18.494  11.122
 3648DOPC   C1A43037  12.059  18.154  11.412
 3648DOPC   D2A43038  11.989  18.214  11.852
 3648DOPC   C3A43039  11.789  18.644  12.002
 3648DOPC   C4A43040  11.779  18.924  12.372
 3648DOPC   C1B43041  12.159  18.614  11.632
 3648DOPC   D2B43042  12.389  18.524  11.952
 3648DOPC   C3B43043  12.339  18.134  12.172
 3648DOPC   C4B43044  12.399  17.604  12.072
 3649DOPC   NC343045   2.589  11.234  11.102
 3649DOPC   PO443046   2.359  11.104  11.492
 3649DOPC   GL143047   2.679  11.134  11.752
 3649DOPC   GL243048   2.439  10.914  11.972
 3649DOPC   C1A43049   2.829  11.224  12.082
 3649DOPC   D2A43050   2.639  11.094  12.462
 3649DOPC   C3A43051   2.159  11.184  12.572
 3649DOPC   C4A43052   1.829  11.324  12.812
 3649DOPC   C1B43053   2.789  10.694  12.212
 3649DOPC   D2B43054   2.839  10.604  12.602
 3649DOPC   C3B43055   3.089  10.204  12.732
 3649DOPC   C4B43056   3.069   9.844  12.582
 3650DOPC   NC343057  17.109   7.384  10.562
 3650DOPC   PO443058  16.779   7.374  10.872
 3650DOPC   GL143059  16.669   7.294  11.292
 3650DOPC   GL243060  17.039   7.404  11.572
 3650DOPC   C1A43061  16.399   7.064  11.582
 3650DOPC   D2A43062  16.489   6.744  11.742
 3650DOPC   C3A43063  16.309   6.754  12.232
 3650DOPC   C4A43064  16.059   7.064  12.552
 3650DOPC   C1B43065  16.849   7.614  11.912
 3650DOPC   D2B43066  16.529   7.704  12.292
 3650DOPC   C3B43067  16.589   7.264  12.562
 3650DOPC   C4B43068  16.949   7.204  12.732
 3651DOPC   NC343069  13.439  -0.676  11.592
 3651DOPC   PO443070  13.529  -0.276  11.502
 3651DOPC   GL143071  13.439  -0.066  11.922
 3651DOPC   GL243072  13.259   0.014  11.802
 3651DOPC   C1A43073  13.579   0.264  12.132
 3651DOPC   D2A43074  13.739   0.454  12.462
 3651DOPC   C3A43075  13.819   0.844  12.312
 3651DOPC   C4A43076  13.889   0.984  11.992
 3651DOPC   C1B43077  13.069   0.374  12.102
 3651DOPC   D2B43078  13.299   0.674  12.322
 3651DOPC   C3B43079  13.089   0.574  12.652
 3651DOPC   C4B43080  12.559   0.374  12.662
 3652DOPC   NC343081   5.079  15.484  15.522
 3652DOPC   PO443082   4.669  15.344  15.482
 3652DOPC   GL143083   4.469  15.264  15.082
 3652DOPC   GL243084   4.509  15.034  14.782
 3652DOPC   C1A43085   4.609  15.444  14.662
 3652DOPC   D2A43086   4.509  15.824  14.482
 3652DOPC   C3A43087   4.509  16.164  14.802
 3652DOPC   C4A43088   4.399  16.634  14.752
 3652DOPC   C1B43089   4.419  15.114  14.252
 3652DOPC   D2B43090   4.359  15.144  13.832
 3652DOPC   C3B43091   4.659  15.324  13.592
 3652DOPC   C4B43092   4.989  15.254  13.362
 3653DOPC   NC343093   9.369  17.224  14.722
 3653DOPC   PO443094   8.999  17.374  14.902
 3653DOPC   GL143095   8.939  17.484  14.502
 3653DOPC   GL243096   9.249  17.364  14.292
 3653DOPC   C1A43097   8.619  17.684  14.182
 3653DOPC   D2A43098   8.469  18.104  14.022
 3653DOPC   C3A43099   8.249  18.154  13.672
 3653DOPC   C4A43100   7.989  18.124  13.302
 3653DOPC   C1B43101   9.219  17.294  13.742
 3653DOPC   D2B43102   9.099  17.154  13.382
 3653DOPC   C3B43103   8.909  16.904  13.142
 3653DOPC   C4B43104   8.889  16.764  12.632
 3654DOPC   NC343105  21.559   3.084  11.942
 3654DOPC   PO443106  21.419   3.504  12.102
 3654DOPC   GL143107  21.699   3.454  12.432
 3654DOPC   GL243108  21.529   3.104  12.482
 3654DOPC   C1A43109  21.759   3.384  12.882
 3654DOPC   D2A43110  21.819   3.244  13.212
 3654DOPC   C3A43111  21.989   3.454  13.492
 3654DOPC   C4A43112  22.139   3.644  13.852
 3654DOPC   C1B43113  21.239   3.314  12.752
 3654DOPC   D2B43114  21.159   3.574  13.052
 3654DOPC   C3B43115  21.149   3.394  13.472
 3654DOPC   C4B43116  21.149   3.694  13.702
 3655DOPC   NC343117  14.169   6.154  14.452
 3655DOPC   PO443118  14.239   5.734  14.642
 3655DOPC   GL143119  14.549   5.704  14.302
 3655DOPC   GL243120  14.429   5.934  14.062
 3655DOPC   C1A43121  14.959   5.704  14.082
 3655DOPC   D2A43122  15.169   5.494  13.822
 3655DOPC   C3A43123  15.619   5.584  13.652
 3655DOPC   C4A43124  15.779   5.254  13.892
 3655DOPC   C1B43125  14.369   5.744  13.632
 3655DOPC   D2B43126  14.289   5.774  13.202
 3655DOPC   C3B43127  13.939   5.614  13.002
 3655DOPC   C4B43128  13.729   5.504  12.632
 3656DOPC   NC343129   8.299   2.224  10.522
 3656DOPC   PO443130   8.549   2.164  10.812
 3656DOPC   GL143131   8.529   2.264  11.262
 3656DOPC   GL243132   8.389   2.604  11.152
 3656DOPC   C1A43133   8.419   2.294  11.612
 3656DOPC   D2A43134   8.499   2.374  11.962
 3656DOPC   C3A43135   8.879   2.284  12.292
 3656DOPC   C4A43136   9.289   2.334  12.432
 3656DOPC   C1B43137   8.659   2.684  11.472
 3656DOPC   D2B43138   9.159   2.704  11.582
 3656DOPC   C3B43139   9.389   2.604  11.912
 3656DOPC   C4B43140   9.769   2.504  12.262
 3657DOPC   NC343141  10.719  19.724  10.502
 3657DOPC   PO443142  10.739  19.234  10.572
 3657DOPC   GL143143  10.959  19.164  10.972
 3657DOPC   GL243144  10.679  19.074  11.162
 3657DOPC   C1A43145  11.069  19.084  11.372
 3657DOPC   D2A43146  11.159  19.314  11.732
 3657DOPC   C3A43147  11.079  19.474  12.222
 3657DOPC   C4A43148  10.969  19.524  12.582
 3657DOPC   C1B43149  10.599  19.244  11.582
 3657DOPC   D2B43150  10.629  19.384  11.922
 3657DOPC   C3B43151  10.509  19.314  12.452
 3657DOPC   C4B43152  10.439  19.144  12.922
 3658DOPC   NC343153   3.079  14.904  15.482
 3658DOPC   PO443154   2.999  15.394  15.292
 3658DOPC   GL143155   2.709  15.494  15.012
 3658DOPC   GL243156   2.679  15.784  14.972
 3658DOPC   C1A43157   2.569  15.344  14.632
 3658DOPC   D2A43158   2.519  15.394  14.162
 3658DOPC   C3A43159   2.659  15.124  13.892
 3658DOPC   C4A43160   2.589  14.684  13.882
 3658DOPC   C1B43161   2.789  15.784  14.512
 3658DOPC   D2B43162   2.709  15.884  14.052
 3658DOPC   C3B43163   2.799  15.664  13.742
 3658DOPC   C4B43164   2.589  15.394  13.402
 3659DOPC   NC343165   0.199  14.184  15.772
 3659DOPC   PO443166   0.409  13.904  15.442
 3659DOPC   GL143167   0.469  13.974  15.042
 3659DOPC   GL243168   0.309  13.714  14.972
 3659DOPC   C1A43169   0.429  14.294  14.802
 3659DOPC   D2A43170   0.749  14.544  14.772
 3659DOPC   C3A43171   0.859  14.604  14.382
 3659DOPC   C4A43172   0.769  14.474  13.972
 3659DOPC   C1B43173   0.289  13.804  14.602
 3659DOPC   D2B43174   0.079  13.934  14.262
 3659DOPC   C3B43175   0.439  13.944  13.932
 3659DOPC   C4B43176   0.379  14.284  13.582
 3660DOPC   NC343177  13.889   2.164  14.812
 3660DOPC   PO443178  13.819   2.684  14.822
 3660DOPC   GL143179  14.029   2.764  14.412
 3660DOPC   GL243180  14.039   2.444  14.202
 3660DOPC   C1A43181  13.939   3.074  13.972
 3660DOPC   D2A43182  13.979   3.124  13.502
 3660DOPC   C3A43183  14.079   2.814  13.242
 3660DOPC   C4A43184  13.899   2.514  13.052
 3660DOPC   C1B43185  14.169   2.604  13.822
 3660DOPC   D2B43186  14.379   3.014  13.752
 3660DOPC   C3B43187  14.439   3.144  13.282
 3660DOPC   C4B43188  14.519   3.144  12.792
 3661DOPC   NC343189  23.349   8.254  12.072
 3661DOPC   PO443190  23.699   8.134  11.842
 3661DOPC   GL143191  23.759   8.194  12.322
 3661DOPC   GL243192  23.999   8.004  12.392
 3661DOPC   C1A43193  23.549   8.164  12.762
 3661DOPC   D2A43194  23.279   8.204  13.172
 3661DOPC   C3A43195  23.379   8.664  13.322
 3661DOPC   C4A43196  23.409   9.064  13.522
 3661DOPC   C1B43197  24.099   7.804  12.752
 3661DOPC   D2B43198  24.409   7.694  12.962
 3661DOPC   C3B43199  24.869   7.894  13.052
 3661DOPC   C4B43200  25.079   8.254  13.032
 3662DOPC   NC343201  25.916  12.334  15.222
 3662DOPC   PO443202  25.409  12.484  15.242
 3662DOPC   GL143203  25.479  12.374  14.792
 3662DOPC   GL243204  25.439  12.114  14.562
 3662DOPC   C1A43205  25.329  12.584  14.472
 3662DOPC   D2A43206  25.249  12.554  14.012
 3662DOPC   C3A43207  25.029  12.564  13.632
 3662DOPC   C4A43208  24.549  12.344  13.552
 3662DOPC   C1B43209  25.766  12.304  14.262
 3662DOPC   D2B43210  25.936  12.614  13.922
 3662DOPC   C3B43211  25.656  12.844  13.792
 3662DOPC   C4B43212  25.716  13.204  13.592
 3663DOPC   NC343213   6.849  14.284  14.382
 3663DOPC   PO443214   7.039  14.634  14.422
 3663DOPC   GL143215   6.729  14.774  14.252
 3663DOPC   GL243216   6.449  14.674  14.222
 3663DOPC   C1A43217   6.569  14.884  13.782
 3663DOPC   D2A43218   6.459  14.934  13.452
 3663DOPC   C3A43219   6.629  15.104  13.082
 3663DOPC   C4A43220   6.799  15.004  12.732
 3663DOPC   C1B43221   6.109  14.674  13.942
 3663DOPC   D2B43222   5.919  14.784  13.452
 3663DOPC   C3B43223   5.989  15.114  13.262
 3663DOPC   C4B43224   6.109  15.154  12.902
 3664DOPC   NC343225  11.259  18.204  10.502
 3664DOPC   PO443226  11.249  18.584  10.762
 3664DOPC   GL143227  11.389  18.684  11.172
 3664DOPC   GL243228  11.539  18.914  11.352
 3664DOPC   C1A43229  11.189  18.664  11.672
 3664DOPC   D2A43230  10.869  18.894  11.922
 3664DOPC   C3A43231  10.899  18.994  12.302
 3664DOPC   C4A43232  10.939  19.104  12.802
 3664DOPC   C1B43233  11.649  18.464  11.582
 3664DOPC   D2B43234  11.389  18.304  11.952
 3664DOPC   C3B43235  11.329  18.614  12.232
 3664DOPC   C4B43236  11.379  19.014  12.062
 3665DOPC   NC343237   5.439  19.554  15.642
 3665DOPC   PO443238   5.219  19.244  15.352
 3665DOPC   GL143239   5.239  19.364  14.932
 3665DOPC   GL243240   5.289  19.184  14.622
 3665DOPC   C1A43241   5.679  19.544  14.702
 3665DOPC   D2A43242   5.769  19.544  14.222
 3665DOPC   C3A43243   5.649  19.844  13.942
 3665DOPC   C4A43244   5.609  19.974  13.542
 3665DOPC   C1B43245   5.299  19.484  14.362
 3665DOPC   D2B43246   5.319  19.444  13.922
 3665DOPC   C3B43247   5.359  19.384  13.462
 3665DOPC   C4B43248   5.579  19.514  13.162
 3666DOPC   NC343249   0.379   1.004  11.512
 3666DOPC   PO443250   0.489   1.344  11.632
 3666DOPC   GL143251   0.569   1.354  12.092
 3666DOPC   GL243252   0.849   1.514  12.242
 3666DOPC   C1A43253   0.749   0.964  12.272
 3666DOPC   D2A43254   0.809   0.484  12.422
 3666DOPC   C3A43255   0.959   0.194  12.772
 3666DOPC   C4A43256   1.189   0.064  13.192
 3666DOPC   C1B43257   0.629   1.514  12.612
 3666DOPC   D2B43258   0.449   1.594  12.902
 3666DOPC   C3B43259   0.109   1.334  13.032
 3666DOPC   C4B43260  -0.069   0.964  12.952
 3667DOPC   NC343261   4.469   6.604  15.072
 3667DOPC   PO443262   4.349   6.154  15.182
 3667DOPC   GL143263   4.179   6.314  14.742
 3667DOPC   GL243264   4.359   6.504  14.582
 3667DOPC   C1A43265   4.019   6.174  14.372
 3667DOPC   D2A43266   4.159   6.424  13.992
 3667DOPC   C3A43267   3.839   6.684  13.732
 3667DOPC   C4A43268   3.659   6.644  13.262
 3667DOPC   C1B43269   4.769   6.564  14.142
 3667DOPC   D2B43270   4.999   6.314  13.812
 3667DOPC   C3B43271   5.079   5.904  13.902
 3667DOPC   C4B43272   5.119   5.474  13.672
 3668DOPC   NC343273  17.259   1.424  11.772
 3668DOPC   PO443274  16.889   1.154  11.662
 3668DOPC   GL143275  16.919   1.174  12.132
 3668DOPC   GL243276  16.929   1.474  12.232
 3668DOPC   C1A43277  17.069   1.124  12.532
 3668DOPC   D2A43278  17.119   1.094  12.952
 3668DOPC   C3A43279  16.959   0.674  13.062
 3668DOPC   C4A43280  16.939   0.614  13.472
 3668DOPC   C1B43281  17.059   1.714  12.562
 3668DOPC   D2B43282  17.029   1.624  12.982
 3668DOPC   C3B43283  17.419   1.464  13.052
 3668DOPC   C4B43284  17.619   1.104  13.232
 3669DOPC   NC343285  12.459  13.394  10.222
 3669DOPC   PO443286  12.779  13.254  10.222
 3669DOPC   GL143287  12.719  13.194  10.602
 3669DOPC   GL243288  12.689  13.454  10.662
 3669DOPC   C1A43289  12.759  12.964  11.032
 3669DOPC   D2A43290  13.079  12.914  11.312
 3669DOPC   C3A43291  13.459  13.114  11.202
 3669DOPC   C4A43292  13.749  13.404  11.422
 3669DOPC   C1B43293  12.429  13.364  11.032
 3669DOPC   D2B43294  12.279  13.534  11.432
 3669DOPC   C3B43295  12.259  13.224  11.572
 3669DOPC   C4B43296  12.479  13.214  11.922
 3670DOPC   NC343297   8.369  19.004  11.362
 3670DOPC   PO443298   7.849  19.054  11.142
 3670DOPC   GL143299   7.949  18.984  11.672
 3670DOPC   GL243300   8.159  19.284  11.862
 3670DOPC   C1A43301   7.849  19.004  12.032
 3670DOPC   D2A43302   7.859  19.034  12.392
 3670DOPC   C3A43303   7.539  18.804  12.652
 3670DOPC   C4A43304   7.269  18.474  12.712
 3670DOPC   C1B43305   8.199  19.544  12.282
 3670DOPC   D2B43306   8.369  19.744  12.662
 3670DOPC   C3B43307   8.459  19.704  13.012
 3670DOPC   C4B43308   8.569  19.684  13.422
 3671DOPC   NC343309   1.829  17.884   7.172
 3671DOPC   PO443310   1.459  18.094   7.202
 3671DOPC   GL143311   1.599  18.234   6.802
 3671DOPC   GL243312   1.429  18.564   6.632
 3671DOPC   C1A43313   1.989  18.064   6.572
 3671DOPC   D2A43314   1.979  17.664   6.392
 3671DOPC   C3A43315   2.259  17.484   6.042
 3671DOPC   C4A43316   2.589  17.214   5.952
 3671DOPC   C1B43317   1.929  18.544   6.472
 3671DOPC   D2B43318   2.089  18.384   6.032
 3671DOPC   C3B43319   1.819  18.254   5.652
 3671DOPC   C4B43320   1.639  18.194   5.222
 3672DOPC   NC343321   3.359  15.904   7.562
 3672DOPC   PO443322   3.589  15.494   7.472
 3672DOPC   GL143323   3.309  15.474   7.142
 3672DOPC   GL243324   3.579  15.314   6.892
 3672DOPC   C1A43325   3.179  15.534   6.662
 3672DOPC   D2A43326   3.039  15.694   6.202
 3672DOPC   C3A43327   3.229  15.754   5.872
 3672DOPC   C4A43328   3.259  16.064   5.542
 3672DOPC   C1B43329   3.799  15.304   6.522
 3672DOPC   D2B43330   3.889  15.174   6.032
 3672DOPC   C3B43331   3.629  15.244   5.722
 3672DOPC   C4B43332   3.369  15.514   5.452
 3673DOPC   NC343333  10.439  10.284  13.902
 3673DOPC   PO443334  10.429  10.254  14.242
 3673DOPC   GL143335   9.989  10.354  13.812
 3673DOPC   GL243336   9.869  10.034  13.542
 3673DOPC   C1A43337  10.049  10.564  13.392
 3673DOPC   D2A43338   9.709  10.874  13.272
 3673DOPC   C3A43339   9.869  11.204  12.932
 3673DOPC   C4A43340   9.579  11.394  12.662
 3673DOPC   C1B43341  10.029  10.034  13.132
 3673DOPC   D2B43342   9.689  10.284  12.842
 3673DOPC   C3B43343   9.339  10.564  12.942
 3673DOPC   C4B43344   8.919  10.604  12.702
 3674DOPC   NC343345  10.939  -0.726  11.362
 3674DOPC   PO443346  10.959  -0.276  11.212
 3674DOPC   GL143347  10.839  -0.076  11.552
 3674DOPC   GL243348  11.209   0.034  11.612
 3674DOPC   C1A43349  10.839   0.164  11.882
 3674DOPC   D2A43350  10.619   0.484  12.132
 3674DOPC   C3A43351  10.189   0.474  12.432
 3674DOPC   C4A43352   9.939   0.894  12.512
 3674DOPC   C1B43353  11.469  -0.096  11.952
 3674DOPC   D2B43354  11.429   0.104  12.362
 3674DOPC   C3B43355  10.969   0.074  12.382
 3674DOPC   C4B43356  10.629   0.344  12.622
 3675DOPC   NC343357  20.529   2.504  15.592
 3675DOPC   PO443358  20.889   2.394  15.652
 3675DOPC   GL143359  20.839   2.724  15.312
 3675DOPC   GL243360  20.599   2.624  15.142
 3675DOPC   C1A43361  20.909   2.924  14.982
 3675DOPC   D2A43362  20.969   3.224  14.672
 3675DOPC   C3A43363  21.409   3.244  14.522
 3675DOPC   C4A43364  21.719   3.174  14.312
 3675DOPC   C1B43365  20.899   2.454  14.812
 3675DOPC   D2B43366  21.009   2.364  14.322
 3675DOPC   C3B43367  20.989   2.654  14.032
 3675DOPC   C4B43368  21.039   2.914  13.592
 3676DOPC   NC343369  13.809   0.994  11.112
 3676DOPC   PO443370  14.149   0.944  11.442
 3676DOPC   GL143371  14.349   0.854  11.832
 3676DOPC   GL243372  14.669   0.824  11.682
 3676DOPC   C1A43373  14.409   1.134  12.192
 3676DOPC   D2A43374  14.679   1.224  12.512
 3676DOPC   C3A43375  14.729   1.574  12.772
 3676DOPC   C4A43376  14.699   1.534  13.232
 3676DOPC   C1B43377  14.839   0.904  12.102
 3676DOPC   D2B43378  14.819   0.734  12.392
 3676DOPC   C3B43379  14.659   0.894  12.852
 3676DOPC   C4B43380  14.849   0.844  13.292
 3677DOPC   NC343381   1.319  23.701  12.062
 3677DOPC   PO443382   1.149  24.131  12.142
 3677DOPC   GL143383   1.469  24.111  12.412
 3677DOPC   GL243384   1.679  23.871  12.422
 3677DOPC   C1A43385   1.689  24.101  12.902
 3677DOPC   D2A43386   1.659  23.981  13.382
 3677DOPC   C3A43387   1.409  24.191  13.692
 3677DOPC   C4A43388   1.079  24.121  14.092
 3677DOPC   C1B43389   1.349  23.701  12.772
 3677DOPC   D2B43390   1.209  23.871  13.152
 3677DOPC   C3B43391   0.839  23.921  13.062
 3677DOPC   C4B43392   0.859  23.821  12.602
 3678DOPC   NC343393   5.099  22.481  15.802
 3678DOPC   PO443394   5.389  22.621  15.562
 3678DOPC   GL143395   5.269  22.691  15.132
 3678DOPC   GL243396   5.519  22.481  14.932
 3678DOPC   C1A43397   4.969  22.771  14.752
 3678DOPC   D2A43398   4.649  22.821  14.422
 3678DOPC   C3A43399   4.749  22.951  13.912
 3678DOPC   C4A43400   5.069  23.021  13.622
 3678DOPC   C1B43401   5.339  22.441  14.552
 3678DOPC   D2B43402   5.469  22.281  14.112
 3678DOPC   C3B43403   5.149  22.231  13.772
 3678DOPC   C4B43404   5.119  22.531  13.382
 3679DOPC   NC343405  11.689  10.014   8.932
 3679DOPC   PO443406  11.489   9.614   8.552
 3679DOPC   GL143407  11.449   9.704   8.162
 3679DOPC   GL243408  11.339   9.574   7.932
 3679DOPC   C1A43409  11.419  10.044   7.772
 3679DOPC   D2A43410  11.189  10.394   7.542
 3679DOPC   C3A43411  11.249  10.434   7.082
 3679DOPC   C4A43412  11.429  10.264   6.702
 3679DOPC   C1B43413  11.269   9.724   7.452
 3679DOPC   D2B43414  11.279   9.294   7.262
 3679DOPC   C3B43415  11.479   9.214   6.792
 3679DOPC   C4B43416  11.269   9.154   6.302
 3680DOPC   NC343417   6.129  12.704  14.812
 3680DOPC   PO443418   5.999  13.134  14.772
 3680DOPC   GL143419   5.979  13.044  14.362
 3680DOPC   GL243420   6.179  12.794  14.262
 3680DOPC   C1A43421   5.769  13.194  13.912
 3680DOPC   D2A43422   5.609  13.314  13.602
 3680DOPC   C3A43423   5.189  13.194  13.362
 3680DOPC   C4A43424   5.109  12.774  13.242
 3680DOPC   C1B43425   6.329  12.504  13.942
 3680DOPC   D2B43426   6.699  12.204  13.772
 3680DOPC   C3B43427   6.629  11.774  13.822
 3680DOPC   C4B43428   6.529  11.444  14.012
 3681DOPC   NC343429   6.269  16.274  15.752
 3681DOPC   PO443430   6.609  16.184  15.452
 3681DOPC   GL143431   6.469  16.274  14.872
 3681DOPC   GL243432   6.239  15.944  14.782
 3681DOPC   C1A43433   6.179  16.314  14.512
 3681DOPC   D2A43434   5.669  16.204  14.482
 3681DOPC   C3A43435   5.479  15.914  14.262
 3681DOPC   C4A43436   5.289  15.514  14.152
 3681DOPC   C1B43437   6.039  15.874  14.312
 3681DOPC   D2B43438   5.859  16.104  13.962
 3681DOPC   C3B43439   5.859  16.094  13.532
 3681DOPC   C4B43440   5.579  15.994  13.292
 3682DOPC   NC343441   2.269  18.174  11.692
 3682DOPC   PO443442   2.729  17.964  11.722
 3682DOPC   GL143443   2.789  17.804  12.192
 3682DOPC   GL243444   3.139  17.764  12.202
 3682DOPC   C1A43445   2.829  17.454  12.432
 3682DOPC   D2A43446   2.889  17.274  12.792
 3682DOPC   C3A43447   3.129  17.384  13.182
 3682DOPC   C4A43448   3.119  17.304  13.542
 3682DOPC   C1B43449   3.059  17.784  12.752
 3682DOPC   D2B43450   2.769  17.684  13.052
 3682DOPC   C3B43451   2.799  17.684  13.562
 3682DOPC   C4B43452   3.039  17.644  13.942
 3683DOPC   NC343453   4.659  17.654  11.732
 3683DOPC   PO443454   5.019  17.914  11.852
 3683DOPC   GL143455   4.869  17.774  12.172
 3683DOPC   GL243456   4.709  17.454  12.212
 3683DOPC   C1A43457   5.009  17.754  12.602
 3683DOPC   D2A43458   4.819  17.614  13.042
 3683DOPC   C3A43459   4.409  17.544  13.112
 3683DOPC   C4A43460   4.059  17.704  13.002
 3683DOPC   C1B43461   4.859  17.254  12.692
 3683DOPC   D2B43462   4.849  17.104  13.172
 3683DOPC   C3B43463   5.049  16.704  13.272
 3683DOPC   C4B43464   5.269  16.414  13.512
 3684DOPC   NC343465  16.109  12.184  15.072
 3684DOPC   PO443466  16.279  12.124  14.642
 3684DOPC   GL143467  16.299  12.374  14.262
 3684DOPC   GL243468  16.649  12.594  14.152
 3684DOPC   C1A43469  16.389  12.094  13.832
 3684DOPC   D2A43470  16.689  12.074  13.492
 3684DOPC   C3A43471  16.609  12.074  13.022
 3684DOPC   C4A43472  16.679  11.994  12.652
 3684DOPC   C1B43473  17.109  12.414  13.882
 3684DOPC   D2B43474  17.549  12.384  13.832
 3684DOPC   C3B43475  17.739  12.204  13.472
 3684DOPC   C4B43476  17.879  12.274  13.122
 3685DOPC   NC343477   6.679  16.944  11.382
 3685DOPC   PO443478   7.059  17.054  11.592
 3685DOPC   GL143479   7.179  16.924  11.952
 3685DOPC   GL243480   7.489  16.744  12.122
 3685DOPC   C1A43481   6.999  17.014  12.352
 3685DOPC   D2A43482   6.709  17.234  12.582
 3685DOPC   C3A43483   6.689  17.584  12.832
 3685DOPC   C4A43484   6.819  17.974  13.182
 3685DOPC   C1B43485   7.329  16.604  12.492
 3685DOPC   D2B43486   7.239  16.614  12.972
 3685DOPC   C3B43487   6.869  16.414  13.232
 3685DOPC   C4B43488   6.709  16.444  13.602
 3686DOPC   NC343489   8.189  16.244  15.192
 3686DOPC   PO443490   7.809  16.544  15.292
 3686DOPC   GL143491   7.889  16.434  14.892
 3686DOPC   GL243492   7.589  16.714  14.812
 3686DOPC   C1A43493   7.939  16.424  14.502
 3686DOPC   D2A43494   7.969  16.514  14.012
 3686DOPC   C3A43495   8.339  16.574  13.792
 3686DOPC   C4A43496   8.629  16.794  13.632
 3686DOPC   C1B43497   7.619  16.774  14.332
 3686DOPC   D2B43498   7.489  16.734  13.832
 3686DOPC   C3B43499   7.209  16.744  13.662
 3686DOPC   C4B43500   6.939  16.884  13.352
 3687DOPC   NC343501  17.169  14.804  15.462
 3687DOPC   PO443502  16.779  14.884  15.212
 3687DOPC   GL143503  16.869  14.914  14.832
 3687DOPC   GL243504  17.209  14.854  14.892
 3687DOPC   C1A43505  16.719  14.734  14.402
 3687DOPC   D2A43506  16.549  14.914  14.042
 3687DOPC   C3A43507  16.929  15.214  13.812
 3687DOPC   C4A43508  17.119  15.534  14.022
 3687DOPC   C1B43509  17.259  14.764  14.512
 3687DOPC   D2B43510  17.259  14.554  14.172
 3687DOPC   C3B43511  16.939  14.674  13.912
 3687DOPC   C4B43512  16.519  14.534  13.642
 3688DOPC   NC343513   5.389  10.724  11.162
 3688DOPC   PO443514   4.879  10.724  11.102
 3688DOPC   GL143515   5.029  10.644  11.512
 3688DOPC   GL243516   5.189  10.374  11.612
 3688DOPC   C1A43517   5.279  10.814  11.862
 3688DOPC   D2A43518   5.449  10.714  12.222
 3688DOPC   C3A43519   5.479  11.164  12.412
 3688DOPC   C4A43520   5.449  11.364  12.792
 3688DOPC   C1B43521   5.479  10.274  12.002
 3688DOPC   D2B43522   5.779  10.064  12.272
 3688DOPC   C3B43523   5.959  10.254  12.582
 3688DOPC   C4B43524   6.069  10.584  12.942
 3689DOPC   NC343525   8.219  17.184  15.472
 3689DOPC   PO443526   8.229  16.874  15.152
 3689DOPC   GL143527   8.269  16.824  14.722
 3689DOPC   GL243528   7.999  16.954  14.612
 3689DOPC   C1A43529   8.379  16.724  14.262
 3689DOPC   D2A43530   8.699  16.564  14.212
 3689DOPC   C3A43531   8.769  16.284  13.882
 3689DOPC   C4A43532   8.629  16.384  13.392
 3689DOPC   C1B43533   7.979  17.064  14.192
 3689DOPC   D2B43534   8.289  17.074  13.912
 3689DOPC   C3B43535   8.349  17.184  13.482
 3689DOPC   C4B43536   8.499  17.164  12.982
 3690DOPC   NC343537   9.259  20.934  15.092
 3690DOPC   PO443538   9.689  20.904  15.102
 3690DOPC   GL143539   9.519  21.024  14.642
 3690DOPC   GL243540   9.679  20.794  14.512
 3690DOPC   C1A43541   9.329  21.344  14.332
 3690DOPC   D2A43542   9.439  21.324  13.932
 3690DOPC   C3A43543   9.779  21.114  13.632
 3690DOPC   C4A43544   9.859  21.184  13.182
 3690DOPC   C1B43545   9.629  20.834  14.122
 3690DOPC   D2B43546   9.289  20.934  13.742
 3690DOPC   C3B43547   9.379  20.964  13.232
 3690DOPC   C4B43548   9.279  21.154  12.912
 3691DOPC   NC343549  24.429   9.344  11.962
 3691DOPC   PO443550  24.799   9.464  11.902
 3691DOPC   GL143551  24.879   9.574  12.352
 3691DOPC   GL243552  25.129   9.414  12.422
 3691DOPC   C1A43553  24.729   9.694  12.762
 3691DOPC   D2A43554  24.669   9.654  13.162
 3691DOPC   C3A43555  24.639   9.514  13.492
 3691DOPC   C4A43556  24.309   9.564  13.862
 3691DOPC   C1B43557  25.179   9.514  12.912
 3691DOPC   D2B43558  25.579   9.274  13.202
 3691DOPC   C3B43559  25.786   9.604  13.442
 3691DOPC   C4B43560  25.866   9.854  13.742
 3692DOPC   NC343561   4.629  17.414  15.632
 3692DOPC   PO443562   5.079  17.524  15.532
 3692DOPC   GL143563   4.969  17.364  15.112
 3692DOPC   GL243564   5.099  17.154  15.102
 3692DOPC   C1A43565   4.649  17.344  14.762
 3692DOPC   D2A43566   4.549  17.054  14.482
 3692DOPC   C3A43567   4.219  17.164  14.222
 3692DOPC   C4A43568   4.039  17.134  13.732
 3692DOPC   C1B43569   5.249  17.394  14.722
 3692DOPC   D2B43570   4.969  17.414  14.422
 3692DOPC   C3B43571   4.949  17.744  14.162
 3692DOPC   C4B43572   5.439  17.934  13.992
 3693DOPC   NC343573  24.589  13.264  15.562
 3693DOPC   PO443574  24.889  13.244  15.232
 3693DOPC   GL143575  24.609  13.264  14.952
 3693DOPC   GL243576  24.369  13.434  15.102
 3693DOPC   C1A43577  24.369  13.154  14.572
 3693DOPC   D2A43578  24.119  13.274  14.262
 3693DOPC   C3A43579  24.169  13.654  13.932
 3693DOPC   C4A43580  24.569  13.794  13.782
 3693DOPC   C1B43581  24.199  13.544  14.782
 3693DOPC   D2B43582  24.479  13.724  14.382
 3693DOPC   C3B43583  24.859  13.944  14.212
 3693DOPC   C4B43584  25.249  14.194  14.122
 3694DOPC   NC343585  15.029   0.744  11.302
 3694DOPC   PO443586  15.089   1.184  11.292
 3694DOPC   GL143587  14.999   1.154  11.622
 3694DOPC   GL243588  15.139   1.504  11.712
 3694DOPC   C1A43589  14.669   1.384  11.872
 3694DOPC   D2A43590  14.269   1.404  11.782
 3694DOPC   C3A43591  14.049   1.504  12.112
 3694DOPC   C4A43592  14.189   1.474  12.592
 3694DOPC   C1B43593  15.099   1.494  12.162
 3694DOPC   D2B43594  15.199   1.494  12.592
 3694DOPC   C3B43595  15.169   1.704  13.022
 3694DOPC   C4B43596  15.029   1.864  13.442
 3695DOPC   NC343597  17.569  19.444  15.872
 3695DOPC   PO443598  17.349  19.184  15.612
 3695DOPC   GL143599  17.549  19.154  15.292
 3695DOPC   GL243600  17.639  18.804  15.222
 3695DOPC   C1A43601  17.979  19.444  15.112
 3695DOPC   D2A43602  18.119  19.634  14.792
 3695DOPC   C3A43603  18.149  20.054  14.602
 3695DOPC   C4A43604  18.069  20.514  14.462
 3695DOPC   C1B43605  17.899  18.784  14.812
 3695DOPC   D2B43606  17.949  18.734  14.362
 3695DOPC   C3B43607  17.819  18.534  14.002
 3695DOPC   C4B43608  17.859  18.304  13.722
 3696DOPC   NC343609   4.659  12.934  14.962
 3696DOPC   PO443610   5.099  12.684  14.872
 3696DOPC   GL143611   5.039  12.844  14.532
 3696DOPC   GL243612   4.709  12.974  14.492
 3696DOPC   C1A43613   5.039  12.694  14.162
 3696DOPC   D2A43614   4.929  12.764  13.692
 3696DOPC   C3A43615   4.689  12.484  13.532
 3696DOPC   C4A43616   4.659  12.104  13.322
 3696DOPC   C1B43617   4.749  13.084  14.062
 3696DOPC   D2B43618   5.169  13.294  13.862
 3696DOPC   C3B43619   5.139  13.714  13.762
 3696DOPC   C4B43620   5.299  13.724  13.342
 3697DOPC   NC343621   1.129  11.484  11.602
 3697DOPC   PO443622   0.769  11.154  11.642
 3697DOPC   GL143623   0.949  11.224  12.022
 3697DOPC   GL243624   1.169  10.984  12.072
 3697DOPC   C1A43625   0.779  11.374  12.422
 3697DOPC   D2A43626   0.799  11.534  12.912
 3697DOPC   C3A43627   0.789  11.304  13.342
 3697DOPC   C4A43628   1.059  11.184  13.562
 3697DOPC   C1B43629   1.069  10.974  12.492
 3697DOPC   D2B43630   0.839  11.024  12.842
 3697DOPC   C3B43631   0.999  10.884  13.122
 3697DOPC   C4B43632   1.169  10.654  13.432
 3698DOPC   NC343633  13.939   8.164  10.652
 3698DOPC   PO443634  14.259   7.814  10.762
 3698DOPC   GL143635  14.049   8.024  11.142
 3698DOPC   GL243636  13.939   7.874  11.322
 3698DOPC   C1A43637  14.079   8.344  11.502
 3698DOPC   D2A43638  14.199   8.394  11.932
 3698DOPC   C3A43639  14.219   8.274  12.212
 3698DOPC   C4A43640  14.119   8.084  12.512
 3698DOPC   C1B43641  13.669   7.644  11.592
 3698DOPC   D2B43642  13.679   7.364  11.972
 3698DOPC   C3B43643  13.989   7.054  12.102
 3698DOPC   C4B43644  14.349   6.964  11.832
 3699DOPC   NC343645  12.509  19.304  11.042
 3699DOPC   PO443646  12.909  19.514  11.082
 3699DOPC   GL143647  12.739  19.344  11.482
 3699DOPC   GL243648  12.429  19.584  11.522
 3699DOPC   C1A43649  12.719  19.014  11.782
 3699DOPC   D2A43650  12.679  18.844  12.242
 3699DOPC   C3A43651  12.719  18.494  12.432
 3699DOPC   C4A43652  13.199  18.394  12.602
 3699DOPC   C1B43653  12.259  19.154  11.652
 3699DOPC   D2B43654  12.139  19.074  11.982
 3699DOPC   C3B43655  12.389  19.194  12.412
 3699DOPC   C4B43656  12.459  18.954  12.742
 3700DOPC   NC343657   4.749  22.821  11.752
 3700DOPC   PO443658   4.279  22.681  11.762
 3700DOPC   GL143659   4.529  22.631  12.142
 3700DOPC   GL243660   4.799  22.881  12.192
 3700DOPC   C1A43661   4.779  22.591  12.592
 3700DOPC   D2A43662   4.839  22.671  12.982
 3700DOPC   C3A43663   4.549  22.731  13.212
 3700DOPC   C4A43664   4.269  22.901  13.612
 3700DOPC   C1B43665   5.229  22.781  12.332
 3700DOPC   D2B43666   5.529  23.101  12.332
 3700DOPC   C3B43667   5.429  23.511  12.362
 3700DOPC   C4B43668   5.729  23.881  12.292
 3701DOPC   NC343669   3.679   4.324  14.792
 3701DOPC   PO443670   3.579   4.754  14.642
 3701DOPC   GL143671   3.729   4.614  14.272
 3701DOPC   GL243672   3.699   4.264  14.332
 3701DOPC   C1A43673   3.809   4.564  13.842
 3701DOPC   D2A43674   3.539   4.834  13.602
 3701DOPC   C3A43675   3.149   4.594  13.462
 3701DOPC   C4A43676   2.789   4.454  13.312
 3701DOPC   C1B43677   3.659   4.014  14.032
 3701DOPC   D2B43678   3.429   3.814  13.762
 3701DOPC   C3B43679   3.359   4.094  13.442
 3701DOPC   C4B43680   3.659   4.414  13.352
 3702DOPC   NC343681  11.109  25.661  15.122
 3702DOPC   PO443682  11.439  25.421  15.322
 3702DOPC   GL143683  11.519  25.401  14.862
 3702DOPC   GL243684  11.419  25.561  14.662
 3702DOPC   C1A43685  11.719  25.211  14.452
 3702DOPC   D2A43686  12.139  25.051  14.412
 3702DOPC   C3A43687  12.409  25.421  14.222
 3702DOPC   C4A43688  12.769  25.511  14.232
 3702DOPC   C1B43689  11.359  25.531  14.132
 3702DOPC   D2B43690  11.299  25.731  13.802
 3702DOPC   C3B43691  11.449  25.681  13.482
 3702DOPC   C4B43692  11.509  25.531  13.082
 3703DOPC   NC343693   7.589  15.984  11.062
 3703DOPC   PO443694   7.279  16.204  11.312
 3703DOPC   GL143695   7.209  16.114  11.642
 3703DOPC   GL243696   7.439  16.174  11.992
 3703DOPC   C1A43697   7.339  15.694  11.912
 3703DOPC   D2A43698   7.619  15.434  11.982
 3703DOPC   C3A43699   7.639  15.364  12.392
 3703DOPC   C4A43700   7.319  15.124  12.702
 3703DOPC   C1B43701   7.019  16.344  12.122
 3703DOPC   D2B43702   6.819  16.584  12.442
 3703DOPC   C3B43703   6.539  16.334  12.832
 3703DOPC   C4B43704   6.179  16.094  13.042
 3704DOPC   NC343705  11.619  23.361  11.472
 3704DOPC   PO443706  11.859  23.731  11.572
 3704DOPC   GL143707  11.839  23.731  12.082
 3704DOPC   GL243708  11.969  23.581  12.272
 3704DOPC   C1A43709  11.569  23.921  12.382
 3704DOPC   D2A43710  11.279  24.071  12.772
 3704DOPC   C3A43711  11.219  23.951  13.212
 3704DOPC   C4A43712  10.799  23.891  13.362
 3704DOPC   C1B43713  12.029  23.801  12.652
 3704DOPC   D2B43714  12.209  24.071  12.992
 3704DOPC   C3B43715  12.629  24.281  13.002
 3704DOPC   C4B43716  12.909  24.401  13.252
 3705DOPC   NC343717   9.419   1.314  10.862
 3705DOPC   PO443718   9.839   1.104  10.982
 3705DOPC   GL143719   9.759   1.394  11.322
 3705DOPC   GL243720  10.039   1.574  11.372
 3705DOPC   C1A43721   9.689   1.314  11.682
 3705DOPC   D2A43722   9.549   1.504  12.162
 3705DOPC   C3A43723   9.449   1.264  12.492
 3705DOPC   C4A43724   9.379   1.114  12.822
 3705DOPC   C1B43725   9.969   1.674  11.672
 3705DOPC   D2B43726  10.139   1.614  12.082
 3705DOPC   C3B43727   9.989   1.384  12.492
 3705DOPC   C4B43728  10.019   1.324  12.922
 3706DOPC   NC343729   2.539   9.334  15.252
 3706DOPC   PO443730   2.469   9.804  15.382
 3706DOPC   GL143731   2.249   9.774  15.032
 3706DOPC   GL243732   2.459   9.884  14.862
 3706DOPC   C1A43733   1.959  10.074  14.852
 3706DOPC   D2A43734   1.529  10.094  14.652
 3706DOPC   C3A43735   1.309  10.134  14.172
 3706DOPC   C4A43736   1.259  10.314  13.812
 3706DOPC   C1B43737   2.289  10.064  14.482
 3706DOPC   D2B43738   1.889   9.924  14.322
 3706DOPC   C3B43739   1.779   9.904  13.942
 3706DOPC   C4B43740   1.829   9.764  13.592
 3707DOPC   NC343741  19.179  19.964  11.552
 3707DOPC   PO443742  19.059  20.064  11.962
 3707DOPC   GL143743  19.309  20.184  12.292
 3707DOPC   GL243744  19.419  19.894  12.312
 3707DOPC   C1A43745  19.349  20.234  12.722
 3707DOPC   D2A43746  19.769  20.264  12.962
 3707DOPC   C3A43747  19.849  20.224  13.362
 3707DOPC   C4A43748  19.699  19.854  13.652
 3707DOPC   C1B43749  19.349  19.584  12.702
 3707DOPC   D2B43750  19.049  19.574  12.942
 3707DOPC   C3B43751  18.849  19.334  13.222
 3707DOPC   C4B43752  18.889  19.284  13.642
 3708DOPC   NC343753   7.759   8.624  14.502
 3708DOPC   PO443754   7.609   8.214  14.312
 3708DOPC   GL143755   7.569   8.484  13.962
 3708DOPC   GL243756   7.499   8.874  14.082
 3708DOPC   C1A43757   7.629   8.624  13.582
 3708DOPC   D2A43758   7.599   8.684  13.142
 3708DOPC   C3A43759   7.949   8.854  12.862
 3708DOPC   C4A43760   8.349   8.944  12.992
 3708DOPC   C1B43761   7.969   8.884  13.852
 3708DOPC   D2B43762   8.239   9.114  13.732
 3708DOPC   C3B43763   8.449   9.564  13.802
 3708DOPC   C4B43764   8.449   9.854  13.962
 3709DOPC   NC343765   2.459  11.574  11.632
 3709DOPC   PO443766   2.029  11.904  11.662
 3709DOPC   GL143767   1.919  12.164  12.002
 3709DOPC   GL243768   2.029  12.434  12.012
 3709DOPC   C1A43769   1.879  12.184  12.432
 3709DOPC   D2A43770   1.799  12.324  12.792
 3709DOPC   C3A43771   1.399  12.154  13.132
 3709DOPC   C4A43772   1.069  12.174  13.412
 3709DOPC   C1B43773   2.039  12.734  12.412
 3709DOPC   D2B43774   1.759  12.824  12.872
 3709DOPC   C3B43775   1.589  13.144  13.242
 3709DOPC   C4B43776   1.629  13.454  13.532
 3710DOPC   NC343777  14.549   8.144  10.622
 3710DOPC   PO443778  14.819   7.844  10.762
 3710DOPC   GL143779  14.989   8.044  11.022
 3710DOPC   GL243780  14.619   8.304  11.112
 3710DOPC   C1A43781  15.099   8.344  11.392
 3710DOPC   D2A43782  15.069   8.434  11.872
 3710DOPC   C3A43783  15.199   8.064  12.132
 3710DOPC   C4A43784  15.499   7.804  12.292
 3710DOPC   C1B43785  14.529   8.164  11.582
 3710DOPC   D2B43786  14.369   7.884  11.712
 3710DOPC   C3B43787  13.959   7.964  11.872
 3710DOPC   C4B43788  13.699   7.884  12.102
 3711DOPC   NC343789   1.029   9.284  11.292
 3711DOPC   PO443790   1.369   9.424  11.532
 3711DOPC   GL143791   1.239   9.014  11.862
 3711DOPC   GL243792   1.549   8.934  11.742
 3711DOPC   C1A43793   0.919   8.924  12.152
 3711DOPC   D2A43794   0.789   8.914  12.562
 3711DOPC   C3A43795   1.219   9.054  12.832
 3711DOPC   C4A43796   1.399   9.494  12.812
 3711DOPC   C1B43797   1.469   8.624  12.082
 3711DOPC   D2B43798   1.269   8.734  12.462
 3711DOPC   C3B43799   1.509   8.594  12.932
 3711DOPC   C4B43800   1.199   8.744  13.312
 3712DOPC   NC343801   2.139  16.204  15.782
 3712DOPC   PO443802   2.169  15.734  15.632
 3712DOPC   GL143803   2.109  15.774  15.172
 3712DOPC   GL243804   2.119  16.114  15.072
 3712DOPC   C1A43805   2.249  15.754  14.752
 3712DOPC   D2A43806   2.299  15.804  14.352
 3712DOPC   C3A43807   1.939  15.924  14.132
 3712DOPC   C4A43808   1.639  16.154  13.892
 3712DOPC   C1B43809   1.719  16.104  14.912
 3712DOPC   D2B43810   1.599  16.114  14.502
 3712DOPC   C3B43811   1.229  16.254  14.342
 3712DOPC   C4B43812   0.899  16.304  14.032
 3713DOPC   NC343813   2.729  19.614  15.542
 3713DOPC   PO443814   2.289  19.534  15.562
 3713DOPC   GL143815   2.299  19.654  15.242
 3713DOPC   GL243816   2.349  19.984  14.992
 3713DOPC   C1A43817   2.389  19.504  14.822
 3713DOPC   D2A43818   2.699  19.594  14.492
 3713DOPC   C3A43819   2.789  19.464  14.072
 3713DOPC   C4A43820   2.629  19.764  13.902
 3713DOPC   C1B43821   2.469  20.194  14.592
 3713DOPC   D2B43822   2.719  20.204  14.192
 3713DOPC   C3B43823   3.049  19.984  13.982
 3713DOPC   C4B43824   3.359  20.064  13.752
 3714DOPC   NC343825   3.169  13.554  15.082
 3714DOPC   PO443826   3.589  13.454  15.072
 3714DOPC   GL143827   3.619  13.464  14.642
 3714DOPC   GL243828   3.579  13.114  14.662
 3714DOPC   C1A43829   3.559  13.614  14.172
 3714DOPC   D2A43830   3.729  13.554  13.702
 3714DOPC   C3A43831   4.309  13.494  13.672
 3714DOPC   C4A43832   4.699  13.214  13.612
 3714DOPC   C1B43833   3.379  13.004  14.302
 3714DOPC   D2B43834   3.519  13.154  13.892
 3714DOPC   C3B43835   3.359  13.124  13.492
 3714DOPC   C4B43836   3.479  12.764  13.352
 3715DOPC   NC343837   7.869  24.791  11.322
 3715DOPC   PO443838   8.329  25.021  11.422
 3715DOPC   GL143839   8.279  24.701  11.712
 3715DOPC   GL243840   7.999  24.461  11.762
 3715DOPC   C1A43841   8.569  24.571  11.982
 3715DOPC   D2A43842   8.729  24.501  12.382
 3715DOPC   C3A43843   8.909  24.951  12.632
 3715DOPC   C4A43844   8.929  25.111  13.012
 3715DOPC   C1B43845   8.119  24.531  12.222
 3715DOPC   D2B43846   8.279  24.461  12.652
 3715DOPC   C3B43847   8.429  24.101  12.882
 3715DOPC   C4B43848   8.609  23.791  13.002
 3716DOPC   NC343849  18.069  15.974  11.972
 3716DOPC   PO443850  17.909  16.104  12.272
 3716DOPC   GL143851  17.969  16.364  12.642
 3716DOPC   GL243852  17.869  16.654  12.582
 3716DOPC   C1A43853  17.899  16.184  13.012
 3716DOPC   D2A43854  17.519  16.304  13.402
 3716DOPC   C3A43855  17.049  16.434  13.262
 3716DOPC   C4A43856  16.769  16.364  12.822
 3716DOPC   C1B43857  18.079  17.004  12.662
 3716DOPC   D2B43858  18.219  17.434  12.712
 3716DOPC   C3B43859  18.519  17.514  13.022
 3716DOPC   C4B43860  18.659  17.294  13.362
 3717DOPC   NC343861  18.499  12.834  11.552
 3717DOPC   PO443862  18.709  12.464  11.402
 3717DOPC   GL143863  18.509  12.254  11.762
 3717DOPC   GL243864  18.749  12.244  11.992
 3717DOPC   C1A43865  18.289  12.064  12.192
 3717DOPC   D2A43866  17.949  11.814  12.372
 3717DOPC   C3A43867  18.029  11.524  12.762
 3717DOPC   C4A43868  18.299  11.114  12.912
 3717DOPC   C1B43869  18.659  12.184  12.422
 3717DOPC   D2B43870  18.539  12.424  12.862
 3717DOPC   C3B43871  18.369  12.184  13.152
 3717DOPC   C4B43872  18.269  11.784  13.202
 3718DOPC   NC343873  12.859  21.951  15.572
 3718DOPC   PO443874  12.659  22.021  15.222
 3718DOPC   GL143875  12.359  21.721  14.892
 3718DOPC   GL243876  12.189  21.931  14.812
 3718DOPC   C1A43877  12.359  21.651  14.412
 3718DOPC   D2A43878  12.529  21.871  14.112
 3718DOPC   C3A43879  12.489  22.181  14.042
 3718DOPC   C4A43880  12.679  22.581  13.912
 3718DOPC   C1B43881  12.099  22.091  14.432
 3718DOPC   D2B43882  11.909  22.041  14.042
 3718DOPC   C3B43883  11.659  22.411  13.952
 3718DOPC   C4B43884  11.309  22.461  13.692
 3719DOPC   NC343885  23.569  15.114  11.902
 3719DOPC   PO443886  23.719  15.344  12.142
 3719DOPC   GL143887  23.509  15.304  12.582
 3719DOPC   GL243888  23.419  14.994  12.742
 3719DOPC   C1A43889  23.419  15.424  13.062
 3719DOPC   D2A43890  23.329  15.314  13.512
 3719DOPC   C3A43891  23.179  15.744  13.752
 3719DOPC   C4A43892  23.009  16.134  13.912
 3719DOPC   C1B43893  23.689  14.994  13.102
 3719DOPC   D2B43894  23.779  14.764  13.472
 3719DOPC   C3B43895  24.149  14.484  13.572
 3719DOPC   C4B43896  24.579  14.194  13.562
 3720DOPC   NC343897  21.319  16.054  12.202
 3720DOPC   PO443898  20.919  15.864  12.052
 3720DOPC   GL143899  20.829  15.864  12.412
 3720DOPC   GL243900  20.959  16.054  12.532
 3720DOPC   C1A43901  20.809  15.514  12.852
 3720DOPC   D2A43902  20.649  15.174  13.002
 3720DOPC   C3A43903  20.659  15.114  13.392
 3720DOPC   C4A43904  20.549  14.634  13.432
 3720DOPC   C1B43905  21.029  15.944  12.952
 3720DOPC   D2B43906  20.799  15.604  13.312
 3720DOPC   C3B43907  20.689  15.474  13.722
 3720DOPC   C4B43908  20.669  15.504  14.152
 3721DOPC   NC343909  24.709   7.944  15.352
 3721DOPC   PO443910  24.239   7.774  15.382
 3721DOPC   GL143911  24.219   7.554  15.052
 3721DOPC   GL243912  23.949   7.384  14.952
 3721DOPC   C1A43913  24.389   7.324  14.582
 3721DOPC   D2A43914  24.319   7.054  14.162
 3721DOPC   C3A43915  24.639   7.184  13.842
 3721DOPC   C4A43916  24.639   7.564  13.482
 3721DOPC   C1B43917  23.919   7.424  14.572
 3721DOPC   D2B43918  23.969   7.444  14.252
 3721DOPC   C3B43919  23.729   7.704  14.032
 3721DOPC   C4B43920  23.709   7.974  13.772
 3722DOPC   NC343921  12.139   0.364  15.122
 3722DOPC   PO443922  11.999   0.164  14.832
 3722DOPC   GL143923  12.059   0.174  14.412
 3722DOPC   GL243924  11.819   0.194  14.202
 3722DOPC   C1A43925  12.139   0.544  14.082
 3722DOPC   D2A43926  12.279   0.454  13.592
 3722DOPC   C3A43927  12.749   0.444  13.502
 3722DOPC   C4A43928  13.199   0.404  13.362
 3722DOPC   C1B43929  11.819   0.034  13.842
 3722DOPC   D2B43930  12.169  -0.006  13.802
 3722DOPC   C3B43931  12.259  -0.456  13.802
 3722DOPC   C4B43932  12.349  -0.896  14.022
 3723DOPC   NC343933   1.579  10.784  11.212
 3723DOPC   PO443934   1.919  10.924  11.442
 3723DOPC   GL143935   1.939  10.754  11.842
 3723DOPC   GL243936   1.869  11.014  12.002
 3723DOPC   C1A43937   1.869  10.584  12.282
 3723DOPC   D2A43938   1.699  10.174  12.322
 3723DOPC   C3A43939   1.329  10.064  12.512
 3723DOPC   C4A43940   1.319   9.964  12.822
 3723DOPC   C1B43941   1.579  11.094  12.342
 3723DOPC   D2B43942   1.329  11.434  12.692
 3723DOPC   C3B43943   1.619  11.784  12.872
 3723DOPC   C4B43944   2.079  11.734  13.002
 3724DOPC   NC343945  18.909  17.624  11.972
 3724DOPC   PO443946  19.109  17.984  12.132
 3724DOPC   GL143947  19.209  18.104  12.512
 3724DOPC   GL243948  19.429  18.004  12.822
 3724DOPC   C1A43949  19.279  18.534  12.782
 3724DOPC   D2A43950  18.949  18.864  13.022
 3724DOPC   C3A43951  18.809  18.724  13.482
 3724DOPC   C4A43952  18.809  18.614  13.902
 3724DOPC   C1B43953  19.359  17.954  13.282
 3724DOPC   D2B43954  19.369  17.754  13.732
 3724DOPC   C3B43955  19.039  17.824  14.012
 3724DOPC   C4B43956  19.019  17.904  14.562
 3725DOPC   NC343957  22.959  17.004  16.292
 3725DOPC   PO443958  22.979  16.614  15.962
 3725DOPC   GL143959  22.869  16.444  15.492
 3725DOPC   GL243960  23.179  16.444  15.412
 3725DOPC   C1A43961  22.769  16.374  15.082
 3725DOPC   D2A43962  22.759  16.324  14.682
 3725DOPC   C3A43963  22.799  16.664  14.322
 3725DOPC   C4A43964  22.939  16.964  14.022
 3725DOPC   C1B43965  23.189  16.774  15.052
 3725DOPC   D2B43966  23.259  16.694  14.542
 3725DOPC   C3B43967  23.589  16.374  14.332
 3725DOPC   C4B43968  23.639  16.254  13.902
 3726DOPC   NC343969  13.439   8.874  14.222
 3726DOPC   PO443970  13.629   8.504  14.372
 3726DOPC   GL143971  13.449   8.424  13.982
 3726DOPC   GL243972  13.489   8.734  13.742
 3726DOPC   C1A43973  13.099   8.324  13.762
 3726DOPC   D2A43974  12.809   8.294  13.312
 3726DOPC   C3A43975  12.919   8.474  12.942
 3726DOPC   C4A43976  12.789   8.744  12.532
 3726DOPC   C1B43977  13.499   8.374  13.412
 3726DOPC   D2B43978  13.519   8.364  13.002
 3726DOPC   C3B43979  13.979   8.494  12.762
 3726DOPC   C4B43980  14.379   8.704  12.842
 3727DOPC   NC343981  17.959   2.394  15.462
 3727DOPC   PO443982  17.609   2.314  15.042
 3727DOPC   GL143983  17.679   2.134  14.682
 3727DOPC   GL243984  17.729   2.414  14.412
 3727DOPC   C1A43985  17.859   1.784  14.412
 3727DOPC   D2A43986  17.699   1.704  13.942
 3727DOPC   C3A43987  17.729   1.204  13.722
 3727DOPC   C4A43988  18.009   1.004  13.552
 3727DOPC   C1B43989  17.459   2.644  14.002
 3727DOPC   D2B43990  17.269   2.884  13.872
 3727DOPC   C3B43991  17.259   2.994  13.482
 3727DOPC   C4B43992  17.479   3.394  13.292
 3728DOPC   NC343993  14.919  11.424  10.522
 3728DOPC   PO443994  14.999  11.884  10.732
 3728DOPC   GL143995  15.219  11.874  11.212
 3728DOPC   GL243996  15.089  12.044  11.472
 3728DOPC   C1A43997  15.449  11.594  11.482
 3728DOPC   D2A43998  15.499  11.584  11.892
 3728DOPC   C3A43999  15.589  11.754  12.222
 3728DOPC   C4A44000  15.829  12.074  12.332
 3728DOPC   C1B44001  15.209  12.414  11.652
 3728DOPC   D2B44002  15.249  12.684  12.142
 3728DOPC   C3B44003  15.019  12.584  12.522
 3728DOPC   C4B44004  14.739  12.714  12.802
 3729DOPC   NC344005  24.829  25.071  15.822
 3729DOPC   PO444006  25.109  24.711  15.922
 3729DOPC   GL144007  25.059  24.811  15.502
 3729DOPC   GL244008  24.799  24.601  15.462
 3729DOPC   C1A44009  24.959  24.981  15.122
 3729DOPC   D2A44010  24.919  25.111  14.782
 3729DOPC   C3A44011  24.509  25.021  14.712
 3729DOPC   C4A44012  24.149  24.811  14.542
 3729DOPC   C1B44013  25.049  24.521  15.112
 3729DOPC   D2B44014  24.969  24.161  15.012
 3729DOPC   C3B44015  25.099  24.181  14.622
 3729DOPC   C4B44016  24.979  24.291  14.222
 3730DOPC   NC344017  16.609  21.064  11.662
 3730DOPC   PO444018  16.429  21.244  11.932
 3730DOPC   GL144019  16.749  21.411  12.342
 3730DOPC   GL244020  17.089  21.581  12.252
 3730DOPC   C1A44021  16.859  21.551  12.692
 3730DOPC   D2A44022  16.829  21.541  13.152
 3730DOPC   C3A44023  16.929  21.691  13.552
 3730DOPC   C4A44024  17.229  21.761  13.962
 3730DOPC   C1B44025  17.109  21.921  12.492
 3730DOPC   D2B44026  17.349  21.891  12.932
 3730DOPC   C3B44027  17.399  22.341  13.102
 3730DOPC   C4B44028  17.619  22.671  12.912
 3731DOPC   NC344029  23.219  13.744  11.862
 3731DOPC   PO444030  23.419  13.484  12.002
 3731DOPC   GL144031  23.329  13.174  12.212
 3731DOPC   GL244032  23.219  13.224  12.542
 3731DOPC   C1A44033  23.689  12.924  12.472
 3731DOPC   D2A44034  23.979  12.864  12.912
 3731DOPC   C3A44035  23.729  12.764  13.212
 3731DOPC   C4A44036  23.449  12.624  13.352
 3731DOPC   C1B44037  23.029  13.104  12.952
 3731DOPC   D2B44038  22.919  13.314  13.322
 3731DOPC   C3B44039  22.549  13.414  13.552
 3731DOPC   C4B44040  22.319  13.294  13.932
 3732DOPC   NC344041  20.769  23.861  12.632
 3732DOPC   PO444042  20.979  23.541  12.732
 3732DOPC   GL144043  20.869  23.571  13.132
 3732DOPC   GL244044  20.719  23.851  13.122
 3732DOPC   C1A44045  20.929  23.381  13.552
 3732DOPC   D2A44046  21.179  23.251  13.842
 3732DOPC   C3A44047  20.899  23.381  14.262
 3732DOPC   C4A44048  20.529  23.551  14.512
 3732DOPC   C1B44049  21.159  23.811  13.492
 3732DOPC   D2B44050  21.229  23.801  13.912
 3732DOPC   C3B44051  20.959  24.011  14.242
 3732DOPC   C4B44052  20.769  24.381  14.342
 3733DOPC   NC344053   2.989   8.984  11.672
 3733DOPC   PO444054   3.419   9.194  11.622
 3733DOPC   GL144055   3.339   9.124  12.082
 3733DOPC   GL244056   3.639   9.194  12.362
 3733DOPC   C1A44057   3.199   9.314  12.512
 3733DOPC   D2A44058   2.959   9.324  12.872
 3733DOPC   C3A44059   3.219   9.164  13.142
 3733DOPC   C4A44060   3.569   9.104  13.332
 3733DOPC   C1B44061   3.579   9.054  12.782
 3733DOPC   D2B44062   3.939   9.094  13.062
 3733DOPC   C3B44063   4.219   9.304  12.842
 3733DOPC   C4B44064   4.729   9.344  13.122
 3734DOPC   NC344065  17.549   6.454  15.182
 3734DOPC   PO444066  17.889   6.654  15.462
 3734DOPC   GL144067  17.989   6.284  15.112
 3734DOPC   GL244068  18.209   5.994  15.042
 3734DOPC   C1A44069  17.829   6.064  14.742
 3734DOPC   D2A44070  17.399   5.904  14.682
 3734DOPC   C3A44071  17.389   5.474  14.412
 3734DOPC   C4A44072  17.519   5.414  14.022
 3734DOPC   C1B44073  18.379   6.014  14.652
 3734DOPC   D2B44074  18.369   6.214  14.222
 3734DOPC   C3B44075  18.129   6.144  13.832
 3734DOPC   C4B44076  17.739   6.054  13.762
 3735DOPC   NC344077   3.219   7.734  15.092
 3735DOPC   PO444078   2.919   7.434  15.032
 3735DOPC   GL144079   3.109   7.354  14.702
 3735DOPC   GL244080   2.839   7.094  14.632
 3735DOPC   C1A44081   3.089   7.504  14.302
 3735DOPC   D2A44082   2.779   7.824  14.022
 3735DOPC   C3A44083   2.469   8.114  14.232
 3735DOPC   C4A44084   2.189   8.364  14.342
 3735DOPC   C1B44085   2.859   6.864  14.312
 3735DOPC   D2B44086   3.059   6.594  14.102
 3735DOPC   C3B44087   2.909   6.884  13.762
 3735DOPC   C4B44088   3.179   6.864  13.352
 3736DOPC   NC344089   1.279  22.311  11.682
 3736DOPC   PO444090   1.209  22.701  11.922
 3736DOPC   GL144091   1.189  22.641  12.402
 3736DOPC   GL244092   1.509  22.771  12.402
 3736DOPC   C1A44093   1.159  22.681  12.832
 3736DOPC   D2A44094   0.969  22.921  13.132
 3736DOPC   C3A44095   1.049  22.861  13.482
 3736DOPC   C4A44096   1.389  22.651  13.792
 3736DOPC   C1B44097   1.879  22.841  12.682
 3736DOPC   D2B44098   1.969  23.091  13.082
 3736DOPC   C3B44099   2.269  23.311  13.382
 3736DOPC   C4B44100   2.279  23.371  13.802
 3737DOPC   NC344101  16.709   9.584  10.362
 3737DOPC   PO444102  16.769   9.504  10.722
 3737DOPC   GL144103  16.659   9.644  11.102
 3737DOPC   GL244104  16.579   9.984  11.142
 3737DOPC   C1A44105  16.309   9.644  11.392
 3737DOPC   D2A44106  15.869   9.544  11.352
 3737DOPC   C3A44107  15.539   9.724  11.642
 3737DOPC   C4A44108  15.159   9.874  11.812
 3737DOPC   C1B44109  16.709   9.994  11.592
 3737DOPC   D2B44110  16.379   9.884  11.862
 3737DOPC   C3B44111  16.139   9.584  11.872
 3737DOPC   C4B44112  15.759   9.294  11.752
 3738DOPC   NC344113  18.249  10.174  11.032
 3738DOPC   PO444114  17.989   9.744  10.952
 3738DOPC   GL144115  17.839   9.844  11.312
 3738DOPC   GL244116  17.559  10.004  11.372
 3738DOPC   C1A44117  18.039   9.944  11.732
 3738DOPC   D2A44118  18.149   9.994  12.092
 3738DOPC   C3A44119  18.209   9.564  12.362
 3738DOPC   C4A44120  18.579   9.184  12.262
 3738DOPC   C1B44121  17.139   9.684  11.362
 3738DOPC   D2B44122  16.939   9.494  11.732
 3738DOPC   C3B44123  16.959   9.804  12.062
 3738DOPC   C4B44124  17.129   9.974  12.542
 3739DOPC   NC344125  12.639   5.764  14.752
 3739DOPC   PO444126  12.479   5.564  14.382
 3739DOPC   GL144127  12.219   5.444  13.982
 3739DOPC   GL244128  11.959   5.204  14.042
 3739DOPC   C1A44129  12.169   5.624  13.662
 3739DOPC   D2A44130  11.899   5.644  13.342
 3739DOPC   C3A44131  11.699   5.954  13.072
 3739DOPC   C4A44132  11.459   6.084  12.742
 3739DOPC   C1B44133  11.909   5.064  13.622
 3739DOPC   D2B44134  11.869   5.114  13.152
 3739DOPC   C3B44135  11.499   4.854  12.852
 3739DOPC   C4B44136  11.049   4.564  12.702
 3740DOPC   NC344137   2.529   3.294  11.492
 3740DOPC   PO444138   2.209   3.514  11.542
 3740DOPC   GL144139   2.409   3.574  11.922
 3740DOPC   GL244140   2.429   3.974  12.002
 3740DOPC   C1A44141   2.539   3.554  12.372
 3740DOPC   D2A44142   2.689   3.754  12.702
 3740DOPC   C3A44143   2.449   4.004  12.972
 3740DOPC   C4A44144   2.309   4.234  13.262
 3740DOPC   C1B44145   2.339   4.114  12.472
 3740DOPC   D2B44146   2.039   4.224  12.792
 3740DOPC   C3B44147   1.929   3.944  13.072
 3740DOPC   C4B44148   1.749   3.544  12.902
 3741DOPC   NC344149  23.719   1.614  11.902
 3741DOPC   PO444150  23.519   1.424  12.182
 3741DOPC   GL144151  23.639   1.294  12.642
 3741DOPC   GL244152  23.419   1.124  12.692
 3741DOPC   C1A44153  23.439   1.594  12.982
 3741DOPC   D2A44154  23.249   1.954  13.182
 3741DOPC   C3A44155  23.209   2.104  13.662
 3741DOPC   C4A44156  22.869   2.194  13.912
 3741DOPC   C1B44157  23.189   1.154  13.082
 3741DOPC   D2B44158  23.049   1.284  13.512
 3741DOPC   C3B44159  23.369   1.524  13.772
 3741DOPC   C4B44160  23.649   1.734  13.752
 3742DOPC   NC344161  18.149   6.854  11.162
 3742DOPC   PO444162  18.649   6.914  11.162
 3742DOPC   GL144163  18.549   6.934  11.532
 3742DOPC   GL244164  18.409   6.614  11.562
 3742DOPC   C1A44165  18.179   7.064  11.852
 3742DOPC   D2A44166  17.829   6.924  11.902
 3742DOPC   C3A44167  17.809   6.654  12.272
 3742DOPC   C4A44168  18.019   6.234  12.552
 3742DOPC   C1B44169  18.829   6.534  11.932
 3742DOPC   D2B44170  19.069   6.294  12.152
 3742DOPC   C3B44171  19.029   6.374  12.522
 3742DOPC   C4B44172  19.069   6.424  12.982
 3743DOPC   NC344173   0.079   8.114  15.282
 3743DOPC   PO444174   0.279   8.474  15.042
 3743DOPC   GL144175   0.429   8.524  14.632
 3743DOPC   GL244176   0.519   8.114  14.562
 3743DOPC   C1A44177   0.579   8.604  14.212
 3743DOPC   D2A44178   0.759   8.684  13.832
 3743DOPC   C3A44179   0.769   8.394  13.542
 3743DOPC   C4A44180   1.089   8.224  13.392
 3743DOPC   C1B44181   0.599   8.024  14.102
 3743DOPC   D2B44182   0.499   7.854  13.712
 3743DOPC   C3B44183   0.539   7.414  13.422
 3743DOPC   C4B44184   0.489   6.944  13.482
 3744DOPC   NC344185  17.309  11.304  10.622
 3744DOPC   PO444186  17.329  11.754  10.792
 3744DOPC   GL144187  17.149  11.424  11.082
 3744DOPC   GL244188  17.069  11.724  11.232
 3744DOPC   C1A44189  16.739  11.174  11.182
 3744DOPC   D2A44190  16.539  10.954  11.542
 3744DOPC   C3A44191  16.899  11.094  11.712
 3744DOPC   C4A44192  17.269  11.124  11.462
 3744DOPC   C1B44193  17.189  11.684  11.662
 3744DOPC   D2B44194  17.569  11.844  11.912
 3744DOPC   C3B44195  17.619  12.144  12.202
 3744DOPC   C4B44196  17.579  12.624  12.272
 3745DOPC   NC344197  25.319  19.344  12.002
 3745DOPC   PO444198  25.179  18.964  12.082
 3745DOPC   GL144199  25.209  19.034  12.502
 3745DOPC   GL244200  24.899  19.094  12.672
 3745DOPC   C1A44201  25.329  19.194  12.902
 3745DOPC   D2A44202  25.706  19.394  13.112
 3745DOPC   C3A44203  25.736  19.544  13.532
 3745DOPC   C4A44204  25.559  19.584  13.962
 3745DOPC   C1B44205  24.839  19.484  12.892
 3745DOPC   D2B44206  24.609  19.744  13.272
 3745DOPC   C3B44207  24.639  19.614  13.672
 3745DOPC   C4B44208  24.639  19.684  14.102
 3746DOPC   NC344209  21.519   5.964  11.282
 3746DOPC   PO444210  21.649   5.694  11.602
 3746DOPC   GL144211  21.729   5.894  12.032
 3746DOPC   GL244212  21.889   6.274  12.052
 3746DOPC   C1A44213  22.029   5.934  12.382
 3746DOPC   D2A44214  22.139   6.244  12.552
 3746DOPC   C3A44215  21.889   6.194  12.812
 3746DOPC   C4A44216  21.829   6.184  13.332
 3746DOPC   C1B44217  21.559   6.404  12.422
 3746DOPC   D2B44218  21.359   6.524  12.772
 3746DOPC   C3B44219  21.669   6.604  13.082
 3746DOPC   C4B44220  22.129   6.764  13.222
 3747DOPC   NC344221   3.989   5.674  11.482
 3747DOPC   PO444222   4.309   5.444  11.322
 3747DOPC   GL144223   4.349   5.384  11.772
 3747DOPC   GL244224   4.519   5.064  11.752
 3747DOPC   C1A44225   4.619   5.444  12.092
 3747DOPC   D2A44226   4.879   5.654  12.342
 3747DOPC   C3A44227   5.179   5.464  12.762
 3747DOPC   C4A44228   5.169   5.504  13.152
 3747DOPC   C1B44229   4.329   4.984  12.142
 3747DOPC   D2B44230   4.179   5.334  12.392
 3747DOPC   C3B44231   4.209   5.344  12.902
 3747DOPC   C4B44232   4.219   5.364  13.302
 3748DOPC   NC344233   1.089  13.784  15.642
 3748DOPC   PO444234   1.149  13.964  15.222
 3748DOPC   GL144235   0.919  13.844  14.892
 3748DOPC   GL244236   0.969  14.094  14.662
 3748DOPC   C1A44237   0.719  13.554  14.662
 3748DOPC   D2A44238   0.589  13.524  14.252
 3748DOPC   C3A44239   0.169  13.464  14.102
 3748DOPC   C4A44240  -0.039  13.794  13.832
 3748DOPC   C1B44241   0.619  14.104  14.352
 3748DOPC   D2B44242   0.329  14.404  14.202
 3748DOPC   C3B44243   0.021  14.454  13.992
 3748DOPC   C4B44244  -0.019  14.614  13.562
 3749DOPC   NC344245  18.819  19.984  12.382
 3749DOPC   PO444246  18.439  20.354  12.302
 3749DOPC   GL144247  17.949  20.294  12.482
 3749DOPC   GL244248  17.769  20.034  12.442
 3749DOPC   C1A44249  17.659  20.514  12.642
 3749DOPC   D2A44250  17.399  20.754  12.842
 3749DOPC   C3A44251  17.389  20.844  13.342
 3749DOPC   C4A44252  17.429  20.574  13.662
 3749DOPC   C1B44253  17.569  20.104  12.912
 3749DOPC   D2B44254  17.259  19.874  12.972
 3749DOPC   C3B44255  16.809  19.914  13.172
 3749DOPC   C4B44256  16.479  20.154  13.312
 3750DOPC   NC344257  18.949  20.984  15.742
 3750DOPC   PO444258  18.849  20.594  15.842
 3750DOPC   GL144259  18.809  20.654  15.392
 3750DOPC   GL244260  18.619  20.314  15.302
 3750DOPC   C1A44261  18.829  20.734  14.972
 3750DOPC   D2A44262  18.839  20.694  14.552
 3750DOPC   C3A44263  18.509  20.564  14.152
 3750DOPC   C4A44264  18.169  20.184  14.062
 3750DOPC   C1B44265  18.749  20.224  14.912
 3750DOPC   D2B44266  18.609  20.174  14.502
 3750DOPC   C3B44267  18.879  20.234  14.242
 3750DOPC   C4B44268  19.059  20.134  13.812
 3751DOPC   NC344269   6.939   5.774  11.172
 3751DOPC   PO444270   6.659   5.404  10.952
 3751DOPC   GL144271   6.709   5.164  11.302
 3751DOPC   GL244272   6.839   4.844  11.362
 3751DOPC   C1A44273   6.709   5.214  11.742
 3751DOPC   D2A44274   6.939   5.074  12.192
 3751DOPC   C3A44275   6.899   5.424  12.572
 3751DOPC   C4A44276   7.009   5.504  12.902
 3751DOPC   C1B44277   7.209   4.874  11.682
 3751DOPC   D2B44278   7.339   4.844  12.132
 3751DOPC   C3B44279   7.279   4.514  12.382
 3751DOPC   C4B44280   7.109   4.354  12.762
 3752DOPC   NC344281  16.289  25.081  11.592
 3752DOPC   PO444282  16.389  24.581  11.762
 3752DOPC   GL144283  16.329  24.411  12.162
 3752DOPC   GL244284  16.169  24.601  12.432
 3752DOPC   C1A44285  16.019  24.111  12.412
 3752DOPC   D2A44286  15.989  23.981  12.722
 3752DOPC   C3A44287  16.079  23.641  12.992
 3752DOPC   C4A44288  16.319  23.601  13.282
 3752DOPC   C1B44289  15.879  24.551  12.642
 3752DOPC   D2B44290  15.829  24.421  12.942
 3752DOPC   C3B44291  16.219  24.191  13.132
 3752DOPC   C4B44292  16.619  23.981  13.162
 3753DOPC   NC344293  21.509   9.754  11.602
 3753DOPC   PO444294  21.589   9.374  11.492
 3753DOPC   GL144295  21.449   9.404  11.982
 3753DOPC   GL244296  21.159   9.144  12.052
 3753DOPC   C1A44297  21.559   9.464  12.442
 3753DOPC   D2A44298  21.859   9.414  12.832
 3753DOPC   C3A44299  22.059   9.114  13.082
 3753DOPC   C4A44300  22.389   9.164  13.402
 3753DOPC   C1B44301  21.509   8.954  12.312
 3753DOPC   D2B44302  21.859   8.954  12.632
 3753DOPC   C3B44303  21.599   8.884  13.002
 3753DOPC   C4B44304  21.319   8.834  13.332
 3754DOPC   NC344305  20.949  12.574  11.592
 3754DOPC   PO444306  21.259  12.494  11.782
 3754DOPC   GL144307  21.389  12.604  12.202
 3754DOPC   GL244308  21.729  12.434  12.292
 3754DOPC   C1A44309  21.289  12.924  12.442
 3754DOPC   D2A44310  21.119  13.144  12.812
 3754DOPC   C3A44311  21.149  12.914  13.082
 3754DOPC   C4A44312  21.349  12.494  13.192
 3754DOPC   C1B44313  21.839  12.304  12.552
 3754DOPC   D2B44314  21.799  12.224  13.022
 3754DOPC   C3B44315  22.219  12.034  13.222
 3754DOPC   C4B44316  22.409  11.654  13.402
 3755DOPC   NC344317   3.249   5.544  11.242
 3755DOPC   PO444318   3.519   5.874  11.192
 3755DOPC   GL144319   3.539   5.834  11.652
 3755DOPC   GL244320   3.299   5.554  11.842
 3755DOPC   C1A44321   3.369   6.004  12.062
 3755DOPC   D2A44322   3.609   6.014  12.402
 3755DOPC   C3A44323   3.389   6.134  12.682
 3755DOPC   C4A44324   3.539   6.264  12.952
 3755DOPC   C1B44325   3.449   5.544  12.292
 3755DOPC   D2B44326   3.799   5.554  12.622
 3755DOPC   C3B44327   3.749   5.814  13.032
 3755DOPC   C4B44328   3.839   5.774  13.452
 3756DOPC   NC344329   1.469  19.424  11.352
 3756DOPC   PO444330   1.829  19.804  11.542
 3756DOPC   GL144331   1.759  19.794  11.992
 3756DOPC   GL244332   1.899  19.454  12.192
 3756DOPC   C1A44333   1.669  19.864  12.362
 3756DOPC   D2A44334   1.499  19.734  12.812
 3756DOPC   C3A44335   1.179  19.984  12.962
 3756DOPC   C4A44336   1.099  20.254  13.152
 3756DOPC   C1B44337   1.999  19.114  12.612
 3756DOPC   D2B44338   1.949  18.834  12.972
 3756DOPC   C3B44339   2.029  18.744  13.322
 3756DOPC   C4B44340   2.249  18.774  13.672
 3757DOPC   NC344341  16.159  11.664   8.072
 3757DOPC   PO444342  16.069  12.114   8.092
 3757DOPC   GL144343  15.689  11.914   7.982
 3757DOPC   GL244344  15.859  11.864   7.692
 3757DOPC   C1A44345  15.339  11.764   7.772
 3757DOPC   D2A44346  15.179  11.944   7.462
 3757DOPC   C3A44347  14.869  12.074   7.692
 3757DOPC   C4A44348  14.629  12.194   7.992
 3757DOPC   C1B44349  15.759  11.644   7.242
 3757DOPC   D2B44350  15.599  11.314   6.842
 3757DOPC   C3B44351  15.159  11.024   6.852
 3757DOPC   C4B44352  14.699  11.184   6.852
 3758DOPC   NC344353   3.469  17.804  15.972
 3758DOPC   PO444354   3.629  17.414  15.672
 3758DOPC   GL144355   3.879  17.594  15.352
 3758DOPC   GL244356   3.819  17.334  15.132
 3758DOPC   C1A44357   4.049  17.774  15.022
 3758DOPC   D2A44358   4.299  18.084  14.832
 3758DOPC   C3A44359   4.359  18.124  14.432
 3758DOPC   C4A44360   4.549  18.014  14.052
 3758DOPC   C1B44361   3.449  17.164  14.752
 3758DOPC   D2B44362   3.389  16.894  14.522
 3758DOPC   C3B44363   3.709  17.024  14.162
 3758DOPC   C4B44364   3.599  16.924  13.742
 3759DOPC   NC344365   5.479   3.034   7.472
 3759DOPC   PO444366   5.359   3.494   7.462
 3759DOPC   GL144367   5.459   3.404   7.082
 3759DOPC   GL244368   5.519   3.514   7.002
 3759DOPC   C1A44369   5.109   3.354   6.752
 3759DOPC   D2A44370   4.999   3.464   6.342
 3759DOPC   C3A44371   4.989   3.654   5.942
 3759DOPC   C4A44372   5.009   3.784   5.542
 3759DOPC   C1B44373   5.579   3.484   6.512
 3759DOPC   D2B44374   5.549   3.644   6.112
 3759DOPC   C3B44375   5.349   4.024   5.912
 3759DOPC   C4B44376   5.109   4.354   5.632
 3760DOPC   NC344377   6.749   4.404  14.692
 3760DOPC   PO444378   6.329   4.554  14.752
 3760DOPC   GL144379   6.409   4.884  14.472
 3760DOPC   GL244380   6.209   4.984  14.402
 3760DOPC   C1A44381   6.749   4.884  14.162
 3760DOPC   D2A44382   6.729   4.894  13.842
 3760DOPC   C3A44383   6.559   4.544  13.762
 3760DOPC   C4A44384   6.459   4.074  13.812
 3760DOPC   C1B44385   6.049   4.704  14.122
 3760DOPC   D2B44386   5.959   4.264  13.892
 3760DOPC   C3B44387   6.239   4.324  13.392
 3760DOPC   C4B44388   6.659   4.334  13.292
 3761DOPC   NC344389   0.629  19.074  11.782
 3761DOPC   PO444390   0.499  18.814  12.152
 3761DOPC   GL144391   0.679  18.854  12.482
 3761DOPC   GL244392   0.829  18.714  12.662
 3761DOPC   C1A44393   0.629  19.154  12.872
 3761DOPC   D2A44394   0.539  19.254  13.262
 3761DOPC   C3A44395   0.719  19.094  13.542
 3761DOPC   C4A44396   0.759  18.744  13.852
 3761DOPC   C1B44397   0.549  18.664  13.002
 3761DOPC   D2B44398   0.719  18.554  13.402
 3761DOPC   C3B44399   0.589  18.314  13.752
 3761DOPC   C4B44400   0.249  18.034  13.782
 3762DOPC   NC344401   5.629   9.684  11.422
 3762DOPC   PO444402   5.639  10.064  11.362
 3762DOPC   GL144403   5.329   9.924  11.692
 3762DOPC   GL244404   5.519   9.764  11.952
 3762DOPC   C1A44405   5.099   9.804  12.142
 3762DOPC   D2A44406   5.329   9.924  12.522
 3762DOPC   C3A44407   5.689   9.764  12.752
 3762DOPC   C4A44408   6.069   9.494  13.012
 3762DOPC   C1B44409   5.629   9.614  12.272
 3762DOPC   D2B44410   5.879   9.284  12.502
 3762DOPC   C3B44411   6.179   8.974  12.452
 3762DOPC   C4B44412   6.539   8.764  12.502
 3763DOPC   NC344413  23.179  18.444  16.352
 3763DOPC   PO444414  23.169  18.054  16.092
 3763DOPC   GL144415  23.229  18.004  15.622
 3763DOPC   GL244416  23.049  18.054  15.352
 3763DOPC   C1A44417  23.179  17.554  15.382
 3763DOPC   D2A44418  23.289  17.334  14.962
 3763DOPC   C3A44419  23.489  17.164  14.602
 3763DOPC   C4A44420  23.469  17.074  14.162
 3763DOPC   C1B44421  22.859  18.464  15.252
 3763DOPC   D2B44422  23.089  18.774  15.142
 3763DOPC   C3B44423  23.169  18.814  14.802
 3763DOPC   C4B44424  23.169  18.784  14.332
 3764DOPC   NC344425  21.349  10.914  15.232
 3764DOPC   PO444426  21.789  10.944  15.032
 3764DOPC   GL144427  21.929  11.174  14.702
 3764DOPC   GL244428  21.849  11.484  14.742
 3764DOPC   C1A44429  21.919  11.244  14.202
 3764DOPC   D2A44430  21.769  11.174  13.882
 3764DOPC   C3A44431  21.779  10.824  13.702
 3764DOPC   C4A44432  21.869  10.434  13.612
 3764DOPC   C1B44433  21.649  11.614  14.462
 3764DOPC   D2B44434  21.429  11.484  14.112
 3764DOPC   C3B44435  21.659  11.604  13.752
 3764DOPC   C4B44436  21.879  11.594  13.282
 3765DOPC   NC344437   9.049  24.481  15.022
 3765DOPC   PO444438   8.579  24.481  15.282
 3765DOPC   GL144439   8.659  24.331  14.732
 3765DOPC   GL244440   8.799  24.501  14.482
 3765DOPC   C1A44441   8.449  24.171  14.522
 3765DOPC   D2A44442   8.239  24.161  14.182
 3765DOPC   C3A44443   7.939  23.821  14.122
 3765DOPC   C4A44444   7.889  23.471  14.292
 3765DOPC   C1B44445   8.669  24.421  14.132
 3765DOPC   D2B44446   8.639  24.481  13.682
 3765DOPC   C3B44447   8.859  24.081  13.472
 3765DOPC   C4B44448   9.109  23.741  13.222
 3766DOPC   NC344449  21.219   9.504  15.932
 3766DOPC   PO444450  21.259   9.384  15.462
 3766DOPC   GL144451  21.339   9.524  15.142
 3766DOPC   GL244452  21.519   9.754  15.032
 3766DOPC   C1A44453  21.259   9.494  14.662
 3766DOPC   D2A44454  21.459   9.544  14.292
 3766DOPC   C3A44455  21.289   9.674  13.952
 3766DOPC   C4A44456  20.809   9.594  13.772
 3766DOPC   C1B44457  21.809   9.584  14.762
 3766DOPC   D2B44458  22.009   9.754  14.522
 3766DOPC   C3B44459  22.089   9.494  14.212
 3766DOPC   C4B44460  21.729   9.444  13.912
 3767DOPC   NC344461   6.489  20.924  11.592
 3767DOPC   PO444462   6.809  20.614  11.522
 3767DOPC   GL144463   6.939  20.564  11.862
 3767DOPC   GL244464   6.779  20.254  11.892
 3767DOPC   C1A44465   7.009  20.664  12.192
 3767DOPC   D2A44466   6.989  20.714  12.662
 3767DOPC   C3A44467   7.149  20.904  12.992
 3767DOPC   C4A44468   7.449  21.114  13.162
 3767DOPC   C1B44469   6.999  20.134  12.252
 3767DOPC   D2B44470   6.899  19.784  12.492
 3767DOPC   C3B44471   6.679  19.924  12.862
 3767DOPC   C4B44472   6.489  19.794  13.182
 3768DOPC   NC344473   5.609  18.414  12.072
 3768DOPC   PO444474   6.009  18.214  11.842
 3768DOPC   GL144475   6.129  18.484  12.192
 3768DOPC   GL244476   6.089  18.794  12.112
 3768DOPC   C1A44477   6.309  18.764  12.522
 3768DOPC   D2A44478   6.209  18.934  12.962
 3768DOPC   C3A44479   5.949  19.144  13.272
 3768DOPC   C4A44480   5.989  19.534  13.452
 3768DOPC   C1B44481   6.199  19.204  12.412
 3768DOPC   D2B44482   6.509  19.514  12.582
 3768DOPC   C3B44483   6.719  19.224  12.922
 3768DOPC   C4B44484   6.609  18.874  13.262
 3769DOPC   NC344485  24.519   0.204  11.962
 3769DOPC   PO444486  24.599   0.664  11.862
 3769DOPC   GL144487  24.709   0.704  12.312
 3769DOPC   GL244488  25.029   0.744  12.312
 3769DOPC   C1A44489  24.679   0.574  12.672
 3769DOPC   D2A44490  24.619   0.284  12.872
 3769DOPC   C3A44491  24.409  -0.046  12.572
 3769DOPC   C4A44492  24.359  -0.426  12.502
 3769DOPC   C1B44493  25.209   0.734  12.732
 3769DOPC   D2B44494  25.589   0.484  12.912
 3769DOPC   C3B44495  25.796   0.544  13.302
 3769DOPC   C4B44496  25.726   0.794  13.662
 3770DOPC   NC344497  24.479   8.714  15.722
 3770DOPC   PO444498  24.629   8.934  15.522
 3770DOPC   GL144499  24.609   8.904  15.142
 3770DOPC   GL244500  24.959   8.914  15.012
 3770DOPC   C1A44501  24.519   9.134  14.742
 3770DOPC   D2A44502  24.299   9.554  14.672
 3770DOPC   C3A44503  24.479   9.954  14.772
 3770DOPC   C4A44504  24.289  10.354  14.842
 3770DOPC   C1B44505  25.289   9.064  14.622
 3770DOPC   D2B44506  25.279   9.044  14.212
 3770DOPC   C3B44507  25.209   8.824  13.822
 3770DOPC   C4B44508  25.229   8.554  13.602
 3771DOPC   NC344509  23.609  17.574  12.092
 3771DOPC   PO444510  24.019  17.394  12.242
 3771DOPC   GL144511  23.769  17.094  12.442
 3771DOPC   GL244512  23.739  16.784  12.432
 3771DOPC   C1A44513  23.949  17.004  12.882
 3771DOPC   D2A44514  23.939  17.344  13.152
 3771DOPC   C3A44515  23.999  17.754  12.912
 3771DOPC   C4A44516  23.909  18.174  13.092
 3771DOPC   C1B44517  23.549  16.724  12.832
 3771DOPC   D2B44518  23.619  16.804  13.242
 3771DOPC   C3B44519  23.799  16.534  13.512
 3771DOPC   C4B44520  24.169  16.354  13.692
 3772DOPC   NC344521   1.979   2.714  15.582
 3772DOPC   PO444522   2.139   2.994  15.132
 3772DOPC   GL144523   2.289   3.154  14.752
 3772DOPC   GL244524   2.189   3.244  14.382
 3772DOPC   C1A44525   2.589   3.334  14.652
 3772DOPC   D2A44526   2.789   3.454  14.292
 3772DOPC   C3A44527   2.669   3.274  13.802
 3772DOPC   C4A44528   2.439   3.214  13.432
 3772DOPC   C1B44529   2.479   3.104  14.202
 3772DOPC   D2B44530   2.449   2.774  13.822
 3772DOPC   C3B44531   2.709   2.804  13.512
 3772DOPC   C4B44532   2.899   3.164  13.252
 3773DOPC   NC344533  15.289  12.054  10.342
 3773DOPC   PO444534  15.529  11.744  10.672
 3773DOPC   GL144535  15.649  11.714  11.012
 3773DOPC   GL244536  15.949  11.524  11.122
 3773DOPC   C1A44537  15.759  12.004  11.422
 3773DOPC   D2A44538  15.819  12.024  11.852
 3773DOPC   C3A44539  15.519  12.274  12.002
 3773DOPC   C4A44540  14.989  12.284  12.122
 3773DOPC   C1B44541  15.929  11.564  11.562
 3773DOPC   D2B44542  16.089  11.614  11.992
 3773DOPC   C3B44543  15.859  11.284  12.182
 3773DOPC   C4B44544  15.389  11.234  12.232
 3774DOPC   NC344545   2.389   1.594  11.902
 3774DOPC   PO444546   2.229   2.014  11.842
 3774DOPC   GL144547   2.159   2.124  12.152
 3774DOPC   GL244548   2.459   2.044  12.252
 3774DOPC   C1A44549   2.049   2.194  12.542
 3774DOPC   D2A44550   2.059   2.284  13.012
 3774DOPC   C3A44551   1.799   2.724  13.012
 3774DOPC   C4A44552   1.559   3.124  13.202
 3774DOPC   C1B44553   2.589   1.944  12.652
 3774DOPC   D2B44554   2.579   1.924  13.102
 3774DOPC   C3B44555   2.829   1.584  13.102
 3774DOPC   C4B44556   3.029   1.214  13.192
 3775DOPC   NC344557  23.419   3.264  11.172
 3775DOPC   PO444558  23.619   3.514  11.612
 3775DOPC   GL144559  23.649   3.784  11.972
 3775DOPC   GL244560  23.799   3.634  12.232
 3775DOPC   C1A44561  23.739   4.214  12.072
 3775DOPC   D2A44562  23.959   4.534  12.252
 3775DOPC   C3A44563  24.079   4.564  12.652
 3775DOPC   C4A44564  24.379   4.254  12.862
 3775DOPC   C1B44565  23.649   3.624  12.632
 3775DOPC   D2B44566  23.529   3.614  13.042
 3775DOPC   C3B44567  23.549   3.424  13.442
 3775DOPC   C4B44568  23.399   3.094  13.632
 3776DOPC   NC344569   2.599   6.704  11.662
 3776DOPC   PO444570   2.319   6.614  11.892
 3776DOPC   GL144571   2.649   6.614  12.292
 3776DOPC   GL244572   2.369   6.734  12.442
 3776DOPC   C1A44573   3.089   6.764  12.482
 3776DOPC   D2A44574   3.249   6.594  12.792
 3776DOPC   C3A44575   3.059   6.334  13.182
 3776DOPC   C4A44576   2.869   5.934  13.432
 3776DOPC   C1B44577   2.369   7.054  12.692
 3776DOPC   D2B44578   2.139   7.354  12.892
 3776DOPC   C3B44579   2.139   7.764  13.032
 3776DOPC   C4B44580   2.179   8.134  13.342
 3777DOPC   NC344581  17.149   1.704  15.382
 3777DOPC   PO444582  17.359   1.834  15.022
 3777DOPC   GL144583  17.149   1.544  14.832
 3777DOPC   GL244584  16.819   1.674  14.762
 3777DOPC   C1A44585  17.039   1.324  14.462
 3777DOPC   D2A44586  16.909   1.034  14.252
 3777DOPC   C3A44587  16.979   0.974  13.772
 3777DOPC   C4A44588  17.159   1.244  13.422
 3777DOPC   C1B44589  16.609   1.534  14.392
 3777DOPC   D2B44590  16.749   1.534  14.032
 3777DOPC   C3B44591  17.189   1.434  13.932
 3777DOPC   C4B44592  17.379   1.084  14.092
 3778DOPC   NC344593   4.789   6.194  15.552
 3778DOPC   PO444594   4.959   6.464  15.232
 3778DOPC   GL144595   4.879   6.424  14.802
 3778DOPC   GL244596   4.719   6.254  14.752
 3778DOPC   C1A44597   5.119   6.624  14.492
 3778DOPC   D2A44598   5.229   6.724  14.092
 3778DOPC   C3A44599   5.129   6.964  13.702
 3778DOPC   C4A44600   5.089   7.244  13.452
 3778DOPC   C1B44601   4.669   6.124  14.382
 3778DOPC   D2B44602   4.429   6.034  13.952
 3778DOPC   C3B44603   4.529   6.374  13.632
 3778DOPC   C4B44604   4.639   6.334  13.252
 3779DOPC   NC344605  17.229  10.834  14.922
 3779DOPC   PO444606  17.599  11.064  14.682
 3779DOPC   GL144607  17.919  10.904  14.412
 3779DOPC   GL244608  18.089  11.114  14.342
 3779DOPC   C1A44609  17.889  10.604  14.072
 3779DOPC   D2A44610  17.709  10.644  13.642
 3779DOPC   C3A44611  17.359  10.764  13.502
 3779DOPC   C4A44612  17.249  10.974  13.152
 3779DOPC   C1B44613  18.319  11.164  14.012
 3779DOPC   D2B44614  18.769  11.084  13.932
 3779DOPC   C3B44615  19.039  11.334  13.962
 3779DOPC   C4B44616  18.989  11.584  14.362
 3780DOPC   NC344617  23.449   6.994  15.412
 3780DOPC   PO444618  23.089   6.944  15.182
 3780DOPC   GL144619  22.919   6.884  14.752
 3780DOPC   GL244620  22.899   6.594  14.812
 3780DOPC   C1A44621  22.569   6.894  14.462
 3780DOPC   D2A44622  22.459   6.484  14.352
 3780DOPC   C3A44623  22.509   6.294  13.902
 3780DOPC   C4A44624  22.859   6.174  13.642
 3780DOPC   C1B44625  22.959   6.464  14.452
 3780DOPC   D2B44626  22.939   6.584  14.082
 3780DOPC   C3B44627  22.619   6.844  13.982
 3780DOPC   C4B44628  22.469   7.334  13.902
 3781DOPC   NC344629   3.769  20.974  11.912
 3781DOPC   PO444630   3.829  21.421  11.812
 3781DOPC   GL144631   4.029  21.334  12.212
 3781DOPC   GL244632   4.109  21.014  12.222
 3781DOPC   C1A44633   4.469  21.324  12.492
 3781DOPC   D2A44634   4.649  21.074  12.912
 3781DOPC   C3A44635   4.739  21.421  13.222
 3781DOPC   C4A44636   4.969  21.761  13.392
 3781DOPC   C1B44637   3.999  21.034  12.622
 3781DOPC   D2B44638   3.669  20.934  12.912
 3781DOPC   C3B44639   3.259  21.014  12.982
 3781DOPC   C4B44640   2.879  21.194  13.222
 3782DOPC   NC344641  23.389  20.654  16.032
 3782DOPC   PO444642  23.639  20.274  15.962
 3782DOPC   GL144643  23.369  20.334  15.562
 3782DOPC   GL244644  23.209  20.674  15.442
 3782DOPC   C1A44645  23.709  20.524  15.202
 3782DOPC   D2A44646  24.029  20.464  14.872
 3782DOPC   C3A44647  23.819  20.564  14.452
 3782DOPC   C4A44648  23.659  20.634  14.062
 3782DOPC   C1B44649  23.119  20.384  15.092
 3782DOPC   D2B44650  23.119  20.254  14.702
 3782DOPC   C3B44651  23.359  20.414  14.422
 3782DOPC   C4B44652  23.139  20.434  13.982
 3783DOPC   NC344653  20.139  11.994  15.302
 3783DOPC   PO444654  20.619  11.784  15.192
 3783DOPC   GL144655  20.809  11.664  14.892
 3783DOPC   GL244656  20.529  11.494  14.632
 3783DOPC   C1A44657  20.849  11.904  14.562
 3783DOPC   D2A44658  20.729  12.054  14.242
 3783DOPC   C3A44659  20.869  11.894  13.852
 3783DOPC   C4A44660  21.189  11.624  13.692
 3783DOPC   C1B44661  20.379  11.554  14.182
 3783DOPC   D2B44662  19.889  11.644  14.092
 3783DOPC   C3B44663  19.719  11.294  13.882
 3783DOPC   C4B44664  19.389  11.074  13.802
 3784DOPC   NC344665  21.159  21.651  12.172
 3784DOPC   PO444666  20.819  21.401  12.242
 3784DOPC   GL144667  20.949  21.551  12.662
 3784DOPC   GL244668  20.729  21.761  12.892
 3784DOPC   C1A44669  21.199  21.641  13.052
 3784DOPC   D2A44670  21.459  21.571  13.402
 3784DOPC   C3A44671  21.849  21.481  13.322
 3784DOPC   C4A44672  22.199  21.244  13.152
 3784DOPC   C1B44673  20.719  21.921  13.332
 3784DOPC   D2B44674  20.669  22.001  13.752
 3784DOPC   C3B44675  20.879  21.691  14.052
 3784DOPC   C4B44676  20.989  21.314  14.072
 3785DOPC   NC344677   5.439  11.654  10.752
 3785DOPC   PO444678   5.509  11.524  11.192
 3785DOPC   GL144679   5.719  11.524  11.582
 3785DOPC   GL244680   6.099  11.504  11.712
 3785DOPC   C1A44681   5.709  11.824  11.922
 3785DOPC   D2A44682   5.669  11.634  12.382
 3785DOPC   C3A44683   5.699  11.974  12.752
 3785DOPC   C4A44684   5.509  12.124  13.102
 3785DOPC   C1B44685   6.269  11.274  11.932
 3785DOPC   D2B44686   6.439  11.124  12.252
 3785DOPC   C3B44687   6.359  11.294  12.682
 3785DOPC   C4B44688   6.429  11.624  12.982
 3786DOPC   NC344689   9.769  24.311  11.132
 3786DOPC   PO444690   9.579  24.731  11.142
 3786DOPC   GL144691   9.449  24.891  11.542
 3786DOPC   GL244692   9.119  25.151  11.422
 3786DOPC   C1A44693   9.609  25.171  11.872
 3786DOPC   D2A44694   9.639  25.521  12.142
 3786DOPC   C3A44695   9.859  25.701  12.412
 3786DOPC   C4A44696   9.899  25.841  12.792
 3786DOPC   C1B44697   8.939  25.351  11.742
 3786DOPC   D2B44698   9.189  25.361  12.182
 3786DOPC   C3B44699   8.939  25.431  12.582
 3786DOPC   C4B44700   8.539  25.431  12.832
 3787DOPC   NC344701  20.479  16.464  12.582
 3787DOPC   PO444702  20.059  16.644  12.442
 3787DOPC   GL144703  20.149  16.904  12.862
 3787DOPC   GL244704  20.269  17.254  12.902
 3787DOPC   C1A44705  20.259  16.674  13.252
 3787DOPC   D2A44706  20.319  16.214  13.242
 3787DOPC   C3A44707  20.699  16.164  13.262
 3787DOPC   C4A44708  20.879  15.934  13.682
 3787DOPC   C1B44709  20.509  17.304  13.282
 3787DOPC   D2B44710  20.729  17.314  13.642
 3787DOPC   C3B44711  20.529  17.164  14.082
 3787DOPC   C4B44712  20.569  17.044  14.542
 3788DOPC   NC344713   6.979  20.154  11.462
 3788DOPC   PO444714   7.259  19.934  11.252
 3788DOPC   GL144715   7.479  19.734  11.632
 3788DOPC   GL244716   7.209  19.854  11.822
 3788DOPC   C1A44717   7.559  19.494  12.022
 3788DOPC   D2A44718   7.749  19.544  12.422
 3788DOPC   C3A44719   7.649  19.314  12.772
 3788DOPC   C4A44720   7.609  19.164  13.232
 3788DOPC   C1B44721   7.069  19.504  12.032
 3788DOPC   D2B44722   6.719  19.334  12.072
 3788DOPC   C3B44723   6.739  19.064  12.422
 3788DOPC   C4B44724   7.049  18.874  12.732
 3789DOPC   NC344725   1.929  19.954  15.682
 3789DOPC   PO444726   2.019  20.144  15.342
 3789DOPC   GL144727   1.809  20.274  15.032
 3789DOPC   GL244728   1.949  20.464  14.742
 3789DOPC   C1A44729   1.589  20.024  14.772
 3789DOPC   D2A44730   1.479  19.894  14.382
 3789DOPC   C3A44731   1.729  19.624  14.112
 3789DOPC   C4A44732   2.189  19.644  13.772
 3789DOPC   C1B44733   2.229  20.584  14.392
 3789DOPC   D2B44734   2.109  20.654  14.022
 3789DOPC   C3B44735   2.219  20.374  13.702
 3789DOPC   C4B44736   2.449  19.994  13.522
 3790DOPC   NC344737  20.919   0.944  12.552
 3790DOPC   PO444738  21.379   1.024  12.532
 3790DOPC   GL144739  21.409   1.214  12.892
 3790DOPC   GL244740  21.169   1.324  12.872
 3790DOPC   C1A44741  21.549   1.184  13.282
 3790DOPC   D2A44742  21.609   1.004  13.542
 3790DOPC   C3A44743  22.019   0.864  13.532
 3790DOPC   C4A44744  22.479   0.794  13.712
 3790DOPC   C1B44745  21.159   1.654  13.192
 3790DOPC   D2B44746  21.079   1.734  13.562
 3790DOPC   C3B44747  20.679   1.704  13.442
 3790DOPC   C4B44748  20.289   1.514  13.422
 3791DOPC   NC344749  10.689  13.104  14.632
 3791DOPC   PO444750  11.039  13.314  14.752
 3791DOPC   GL144751  10.989  13.244  14.192
 3791DOPC   GL244752  11.219  13.364  14.022
 3791DOPC   C1A44753  10.899  13.124  13.712
 3791DOPC   D2A44754  10.459  12.964  13.382
 3791DOPC   C3A44755  10.709  12.994  13.022
 3791DOPC   C4A44756  11.069  13.064  12.712
 3791DOPC   C1B44757  11.359  13.334  13.542
 3791DOPC   D2B44758  11.019  13.304  13.232
 3791DOPC   C3B44759  10.849  13.514  13.002
 3791DOPC   C4B44760  10.659  13.514  12.632
 3792DOPC   NC344761  15.409   3.144  11.332
 3792DOPC   PO444762  15.629   3.484  11.292
 3792DOPC   GL144763  15.689   3.494  11.712
 3792DOPC   GL244764  15.769   3.204  11.762
 3792DOPC   C1A44765  15.779   3.824  11.982
 3792DOPC   D2A44766  15.489   3.894  12.412
 3792DOPC   C3A44767  15.099   4.094  12.172
 3792DOPC   C4A44768  14.969   4.304  11.782
 3792DOPC   C1B44769  15.899   2.884  12.052
 3792DOPC   D2B44770  15.779   2.794  12.522
 3792DOPC   C3B44771  15.939   3.074  12.762
 3792DOPC   C4B44772  16.009   3.474  12.762
 3793DOPC   NC344773   7.069   5.424  14.742
 3793DOPC   PO444774   7.409   5.804  14.522
 3793DOPC   GL144775   7.149   5.564  14.202
 3793DOPC   GL244776   7.269   5.314  14.112
 3793DOPC   C1A44777   6.859   5.444  13.772
 3793DOPC   D2A44778   6.849   5.674  13.392
 3793DOPC   C3A44779   6.529   6.134  13.362
 3793DOPC   C4A44780   6.029   6.344  13.442
 3793DOPC   C1B44781   7.259   5.144  13.722
 3793DOPC   D2B44782   7.009   5.174  13.382
 3793DOPC   C3B44783   7.269   5.134  13.062
 3793DOPC   C4B44784   7.279   5.044  12.612
 3794DOPC   NC344785   4.199  16.764  11.722
 3794DOPC   PO444786   4.469  17.194  11.672
 3794DOPC   GL144787   4.819  16.924  11.872
 3794DOPC   GL244788   4.699  16.594  12.012
 3794DOPC   C1A44789   5.009  16.794  12.272
 3794DOPC   D2A44790   5.149  16.814  12.752
 3794DOPC   C3A44791   5.449  16.794  13.082
 3794DOPC   C4A44792   5.699  16.474  13.212
 3794DOPC   C1B44793   4.579  16.854  12.432
 3794DOPC   D2B44794   4.409  17.184  12.662
 3794DOPC   C3B44795   4.329  17.054  13.072
 3794DOPC   C4B44796   4.449  16.764  13.342
 3795DOPC   NC344797   5.819  23.791  11.662
 3795DOPC   PO444798   5.949  24.201  11.542
 3795DOPC   GL144799   5.989  24.221  11.992
 3795DOPC   GL244800   6.239  24.351  11.912
 3795DOPC   C1A44801   6.019  24.341  12.362
 3795DOPC   D2A44802   6.089  24.611  12.622
 3795DOPC   C3A44803   6.239  24.581  12.982
 3795DOPC   C4A44804   6.309  24.571  13.392
 3795DOPC   C1B44805   6.469  24.531  12.202
 3795DOPC   D2B44806   6.659  24.551  12.582
 3795DOPC   C3B44807   6.699  24.521  12.932
 3795DOPC   C4B44808   6.849  24.431  13.252
 3796DOPC   NC344809  15.969   5.274   8.182
 3796DOPC   PO444810  15.759   5.604   8.272
 3796DOPC   GL144811  15.549   5.664   7.892
 3796DOPC   GL244812  15.709   5.404   7.742
 3796DOPC   C1A44813  15.299   5.914   7.642
 3796DOPC   D2A44814  15.399   6.324   7.382
 3796DOPC   C3A44815  15.339   6.264   6.962
 3796DOPC   C4A44816  15.509   5.894   6.722
 3796DOPC   C1B44817  15.399   5.164   7.702
 3796DOPC   D2B44818  15.029   4.914   7.742
 3796DOPC   C3B44819  14.589   5.074   7.572
 3796DOPC   C4B44820  14.159   5.164   7.492
 3797DOPC   NC344821   3.289   9.004  15.412
 3797DOPC   PO444822   3.379   8.904  14.962
 3797DOPC   GL144823   3.269   8.924  14.552
 3797DOPC   GL244824   2.989   9.034  14.542
 3797DOPC   C1A44825   3.259   9.044  14.082
 3797DOPC   D2A44826   3.189   9.204  13.652
 3797DOPC   C3A44827   3.239   9.564  13.462
 3797DOPC   C4A44828   3.239   9.704  13.072
 3797DOPC   C1B44829   2.789   9.024  14.172
 3797DOPC   D2B44830   2.569   9.194  13.802
 3797DOPC   C3B44831   2.749   9.234  13.392
 3797DOPC   C4B44832   2.679   8.984  13.112
 3798DOPC   NC344833   3.239  18.384  11.212
 3798DOPC   PO444834   2.969  18.544  11.602
 3798DOPC   GL144835   2.729  18.364  11.972
 3798DOPC   GL244836   2.439  18.564  12.062
 3798DOPC   C1A44837   2.749  18.234  12.422
 3798DOPC   D2A44838   2.639  17.934  12.612
 3798DOPC   C3A44839   2.819  18.174  13.002
 3798DOPC   C4A44840   2.729  18.254  13.452
 3798DOPC   C1B44841   2.559  18.894  12.392
 3798DOPC   D2B44842   2.869  18.614  12.702
 3798DOPC   C3B44843   3.249  18.694  12.992
 3798DOPC   C4B44844   3.419  19.024  13.252
 3799DOPC   NC344845  19.549  11.654  11.012
 3799DOPC   PO444846  19.359  11.334  11.432
 3799DOPC   GL144847  19.059  11.384  11.742
 3799DOPC   GL244848  18.689  11.254  11.762
 3799DOPC   C1A44849  18.959  11.184  12.162
 3799DOPC   D2A44850  18.839  10.824  12.292
 3799DOPC   C3A44851  18.549  10.654  12.012
 3799DOPC   C4A44852  18.339  10.394  11.792
 3799DOPC   C1B44853  18.449  11.224  12.102
 3799DOPC   D2B44854  18.039  11.174  12.342
 3799DOPC   C3B44855  17.699  11.374  12.292
 3799DOPC   C4B44856  17.319  11.664  12.352
 3800DOPC   NC344857   3.709  18.674  11.442
 3800DOPC   PO444858   3.459  18.594  11.702
 3800DOPC   GL144859   3.269  18.444  12.102
 3800DOPC   GL244860   3.129  18.674  12.212
 3800DOPC   C1A44861   3.229  18.244  12.482
 3800DOPC   D2A44862   3.299  18.194  12.912
 3800DOPC   C3A44863   3.249  18.334  13.282
 3800DOPC   C4A44864   3.299  18.634  13.632
 3800DOPC   C1B44865   3.289  18.934  12.552
 3800DOPC   D2B44866   3.429  19.214  12.802
 3800DOPC   C3B44867   3.189  19.484  13.112
 3800DOPC   C4B44868   2.979  19.754  13.412
 3801DOPC   NC344869  21.409  10.994  11.202
 3801DOPC   PO444870  21.619  11.334  11.402
 3801DOPC   GL144871  21.759  11.354  11.792
 3801DOPC   GL244872  22.069  11.554  11.902
 3801DOPC   C1A44873  21.529  11.494  12.132
 3801DOPC   D2A44874  21.169  11.404  12.162
 3801DOPC   C3A44875  21.159  11.064  12.362
 3801DOPC   C4A44876  21.179  10.864  12.792
 3801DOPC   C1B44877  21.989  11.444  12.302
 3801DOPC   D2B44878  21.779  11.314  12.732
 3801DOPC   C3B44879  21.329  11.314  12.732
 3801DOPC   C4B44880  21.099  11.504  12.702
 3802DOPC   NC344881  21.469  10.444  11.782
 3802DOPC   PO444882  21.149  10.204  11.552
 3802DOPC   GL144883  21.129   9.864  11.822
 3802DOPC   GL244884  21.199  10.064  12.112
 3802DOPC   C1A44885  21.079   9.634  12.252
 3802DOPC   D2A44886  21.049   9.314  12.512
 3802DOPC   C3A44887  21.309   9.374  12.972
 3802DOPC   C4A44888  21.519   9.454  13.302
 3802DOPC   C1B44889  20.949  10.154  12.552
 3802DOPC   D2B44890  21.129  10.344  12.882
 3802DOPC   C3B44891  21.009  10.224  13.272
 3802DOPC   C4B44892  20.789   9.874  13.322
 3803DOPC   NC344893  11.639  18.254  14.972
 3803DOPC   PO444894  11.869  17.974  14.662
 3803DOPC   GL144895  11.809  18.014  14.202
 3803DOPC   GL244896  11.619  18.024  13.882
 3803DOPC   C1A44897  11.929  18.384  14.002
 3803DOPC   D2A44898  11.739  18.424  13.622
 3803DOPC   C3A44899  11.949  18.294  13.332
 3803DOPC   C4A44900  11.859  18.044  13.042
 3803DOPC   C1B44901  11.449  18.014  13.462
 3803DOPC   D2B44902  11.419  17.774  13.012
 3803DOPC   C3B44903  11.549  17.484  13.232
 3803DOPC   C4B44904  11.809  17.434  13.702
 3804DOPC   NC344905  18.019  11.794  10.892
 3804DOPC   PO444906  18.389  11.474  10.982
 3804DOPC   GL144907  18.329  11.574  11.402
 3804DOPC   GL244908  18.019  11.654  11.392
 3804DOPC   C1A44909  18.509  11.744  11.782
 3804DOPC   D2A44910  18.709  11.654  12.162
 3804DOPC   C3A44911  18.479  11.664  12.552
 3804DOPC   C4A44912  18.309  11.964  12.712
 3804DOPC   C1B44913  17.639  11.484  11.622
 3804DOPC   D2B44914  17.359  11.304  11.922
 3804DOPC   C3B44915  16.869  11.394  12.112
 3804DOPC   C4B44916  16.579  11.654  12.282
 3805DOPC   NC344917  12.049   5.824  10.722
 3805DOPC   PO444918  12.119   6.264  10.762
 3805DOPC   GL144919  12.159   6.234  11.122
 3805DOPC   GL244920  12.029   5.904  11.242
 3805DOPC   C1A44921  12.309   6.114  11.582
 3805DOPC   D2A44922  12.579   6.314  11.872
 3805DOPC   C3A44923  12.709   6.324  12.252
 3805DOPC   C4A44924  12.529   6.314  12.622
 3805DOPC   C1B44925  11.909   5.954  11.722
 3805DOPC   D2B44926  11.869   5.754  12.102
 3805DOPC   C3B44927  11.679   5.674  12.422
 3805DOPC   C4B44928  11.519   5.434  12.732
 3806DOPC   NC344929  17.979  25.321  11.852
 3806DOPC   PO444930  18.279  25.401  12.162
 3806DOPC   GL144931  18.419  25.581  12.562
 3806DOPC   GL244932  18.289  25.751  12.642
 3806DOPC   C1A44933  18.579  25.421  13.062
 3806DOPC   D2A44934  18.799  25.581  13.312
 3806DOPC   C3A44935  19.049  25.411  13.522
 3806DOPC   C4A44936  19.049  25.151  13.942
 3806DOPC   C1B44937  18.349  25.861  13.092
 3806DOPC   D2B44938  18.269  25.591  13.442
 3806DOPC   C3B44939  18.589  25.531  13.712
 3806DOPC   C4B44940  18.639  25.331  14.092
 3807DOPC   NC344941   7.809  19.244  15.352
 3807DOPC   PO444942   8.169  19.104  15.202
 3807DOPC   GL144943   8.349  19.154  14.812
 3807DOPC   GL244944   8.669  19.174  14.932
 3807DOPC   C1A44945   8.399  19.004  14.482
 3807DOPC   D2A44946   8.409  19.014  14.012
 3807DOPC   C3A44947   8.379  19.514  13.912
 3807DOPC   C4A44948   8.499  19.864  13.892
 3807DOPC   C1B44949   8.699  19.384  14.462
 3807DOPC   D2B44950   8.889  19.264  14.022
 3807DOPC   C3B44951   8.839  19.254  13.662
 3807DOPC   C4B44952   9.169  19.184  13.402
 3808DOPC   NC344953  11.119  12.614   9.692
 3808DOPC   PO444954  11.129  12.514  10.222
 3808DOPC   GL144955  11.239  12.394  10.662
 3808DOPC   GL244956  11.549  12.394  10.762
 3808DOPC   C1A44957  11.149  12.544  11.062
 3808DOPC   D2A44958  11.449  12.314  11.372
 3808DOPC   C3A44959  11.499  12.284  11.862
 3808DOPC   C4A44960  11.599  12.644  12.112
 3808DOPC   C1B44961  11.659  12.704  10.952
 3808DOPC   D2B44962  11.649  13.024  11.212
 3808DOPC   C3B44963  11.289  13.364  11.272
 3808DOPC   C4B44964  11.259  13.744  11.432
 3809DOPC   NC344965  13.469   6.324  10.562
 3809DOPC   PO444966  13.359   6.334  10.942
 3809DOPC   GL144967  13.709   6.364  11.352
 3809DOPC   GL244968  13.889   5.994  11.392
 3809DOPC   C1A44969  13.869   6.674  11.572
 3809DOPC   D2A44970  13.709   6.984  11.682
 3809DOPC   C3A44971  13.359   7.024  12.072
 3809DOPC   C4A44972  12.979   6.724  12.092
 3809DOPC   C1B44973  13.929   6.144  11.802
 3809DOPC   D2B44974  14.239   6.454  11.862
 3809DOPC   C3B44975  14.279   6.614  12.282
 3809DOPC   C4B44976  14.339   6.474  12.692
 3810DOPC   NC344977  -0.399  20.254  11.912
 3810DOPC   PO444978   0.069  20.364  11.882
 3810DOPC   GL144979   0.199  20.134  12.162
 3810DOPC   GL244980   0.349  20.434  12.332
 3810DOPC   C1A44981   0.319  19.954  12.522
 3810DOPC   D2A44982   0.509  19.644  12.842
 3810DOPC   C3A44983   0.769  19.724  13.182
 3810DOPC   C4A44984   0.759  19.684  13.602
 3810DOPC   C1B44985   0.369  20.524  12.712
 3810DOPC   D2B44986   0.249  20.574  13.152
 3810DOPC   C3B44987  -0.099  20.754  13.452
 3810DOPC   C4B44988   0.249  20.984  13.792
 3811DOPC   NC344989   8.469  17.024  11.002
 3811DOPC   PO444990   8.739  17.024  11.512
 3811DOPC   GL144991   8.849  17.004  11.842
 3811DOPC   GL244992   8.589  16.974  12.062
 3811DOPC   C1A44993   9.059  16.734  12.152
 3811DOPC   D2A44994   9.399  16.844  12.422
 3811DOPC   C3A44995   9.349  16.954  12.942
 3811DOPC   C4A44996   9.419  16.704  13.352
 3811DOPC   C1B44997   8.719  17.324  12.352
 3811DOPC   D2B44998   8.769  17.554  12.802
 3811DOPC   C3B44999   8.639  17.894  13.042
 3811DOPC   C4B45000   8.669  18.054  13.452
 3812DOPC   NC345001   2.389   5.824  11.592
 3812DOPC   PO445002   2.549   6.134  11.822
 3812DOPC   GL145003   2.459   6.204  12.192
 3812DOPC   GL245004   2.709   5.884  12.222
 3812DOPC   C1A45005   2.269   6.284  12.672
 3812DOPC   D2A45006   2.089   6.594  12.892
 3812DOPC   C3A45007   1.849   6.854  12.662
 3812DOPC   C4A45008   1.979   7.114  12.322
 3812DOPC   C1B45009   3.069   5.774  12.482
 3812DOPC   D2B45010   3.169   5.854  13.002
 3812DOPC   C3B45011   3.339   5.624  13.242
 3812DOPC   C4B45012   3.679   5.334  13.062
 3813DOPC   NC345013   9.879  13.894  11.052
 3813DOPC   PO445014   9.989  14.344  11.192
 3813DOPC   GL145015  10.319  14.554  11.502
 3813DOPC   GL245016  10.089  14.864  11.632
 3813DOPC   C1A45017  10.569  14.464  11.762
 3813DOPC   D2A45018  10.829  14.424  12.172
 3813DOPC   C3A45019  10.499  14.224  12.562
 3813DOPC   C4A45020  10.359  13.924  12.942
 3813DOPC   C1B45021   9.909  14.524  11.912
 3813DOPC   D2B45022   9.769  14.494  12.332
 3813DOPC   C3B45023  10.009  14.554  12.572
 3813DOPC   C4B45024  10.399  14.684  12.712
 3814DOPC   NC345025  24.009  19.224  11.952
 3814DOPC   PO445026  24.239  19.204  12.292
 3814DOPC   GL145027  24.039  19.214  12.702
 3814DOPC   GL245028  23.859  18.964  12.752
 3814DOPC   C1A45029  24.209  19.544  12.932
 3814DOPC   D2A45030  24.439  19.894  12.852
 3814DOPC   C3A45031  24.299  20.114  13.222
 3814DOPC   C4A45032  24.319  20.234  13.642
 3814DOPC   C1B45033  24.069  18.964  13.142
 3814DOPC   D2B45034  23.989  18.924  13.622
 3814DOPC   C3B45035  23.799  19.314  13.822
 3814DOPC   C4B45036  23.789  19.744  13.992
 3815DOPC   NC345037  18.769  19.224  15.692
 3815DOPC   PO445038  18.989  19.504  15.972
 3815DOPC   GL145039  19.049  19.594  15.532
 3815DOPC   GL245040  18.929  19.784  15.312
 3815DOPC   C1A45041  19.049  19.354  15.112
 3815DOPC   D2A45042  18.779  19.284  14.752
 3815DOPC   C3A45043  18.679  18.974  14.522
 3815DOPC   C4A45044  18.499  18.714  14.222
 3815DOPC   C1B45045  19.089  19.854  14.942
 3815DOPC   D2B45046  19.289  19.564  14.712
 3815DOPC   C3B45047  19.519  19.194  14.942
 3815DOPC   C4B45048  19.659  18.824  14.702
 3816DOPC   NC345049  17.179  17.884  11.362
 3816DOPC   PO445050  17.589  17.824  11.772
 3816DOPC   GL145051  17.349  17.954  12.122
 3816DOPC   GL245052  17.379  17.554  12.232
 3816DOPC   C1A45053  17.299  17.894  12.602
 3816DOPC   D2A45054  17.079  17.954  13.042
 3816DOPC   C3A45055  17.029  18.164  13.372
 3816DOPC   C4A45056  17.229  18.474  13.762
 3816DOPC   C1B45057  16.839  17.644  12.202
 3816DOPC   D2B45058  16.469  17.674  12.442
 3816DOPC   C3B45059  16.369  17.644  12.912
 3816DOPC   C4B45060  16.649  17.884  13.222
 3817DOPC   NC345061  17.579  23.241  11.552
 3817DOPC   PO445062  17.439  23.521  11.832
 3817DOPC   GL145063  17.079  23.351  12.162
 3817DOPC   GL245064  17.359  23.281  12.382
 3817DOPC   C1A45065  16.669  23.331  12.482
 3817DOPC   D2A45066  16.279  23.271  12.592
 3817DOPC   C3A45067  16.129  23.091  12.982
 3817DOPC   C4A45068  15.879  23.051  13.222
 3817DOPC   C1B45069  17.089  23.071  12.642
 3817DOPC   D2B45070  17.069  22.771  12.892
 3817DOPC   C3B45071  17.329  22.761  13.322
 3817DOPC   C4B45072  17.669  23.061  13.452
 3818DOPC   NC345073   6.189   4.134  10.782
 3818DOPC   PO445074   6.069   4.454  10.992
 3818DOPC   GL145075   6.039   4.444  11.462
 3818DOPC   GL245076   6.069   4.134  11.582
 3818DOPC   C1A45077   6.009   4.624  11.862
 3818DOPC   D2A45078   6.119   4.554  12.172
 3818DOPC   C3A45079   5.819   4.594  12.582
 3818DOPC   C4A45080   5.619   4.204  12.852
 3818DOPC   C1B45081   5.859   4.074  11.892
 3818DOPC   D2B45082   5.569   4.404  11.982
 3818DOPC   C3B45083   5.509   4.824  11.782
 3818DOPC   C4B45084   5.529   5.264  11.882
 3819DOPC   NC345085  13.999  20.404  15.462
 3819DOPC   PO445086  14.379  20.114  15.312
 3819DOPC   GL145087  14.319  19.914  14.822
 3819DOPC   GL245088  14.019  19.784  14.702
 3819DOPC   C1A45089  14.519  19.884  14.492
 3819DOPC   D2A45090  14.539  19.914  14.012
 3819DOPC   C3A45091  14.269  20.044  13.752
 3819DOPC   C4A45092  13.849  20.004  13.632
 3819DOPC   C1B45093  13.879  20.224  14.682
 3819DOPC   D2B45094  13.999  20.734  14.662
 3819DOPC   C3B45095  14.309  20.844  14.362
 3819DOPC   C4B45096  14.399  21.054  14.112
 3820DOPC   NC345097   6.099   8.864  10.972
 3820DOPC   PO445098   5.729   8.884  11.262
 3820DOPC   GL145099   5.759   8.684  11.642
 3820DOPC   GL245100   5.789   8.424  11.582
 3820DOPC   C1A45101   5.719   8.834  12.032
 3820DOPC   D2A45102   5.679   8.794  12.542
 3820DOPC   C3A45103   5.579   9.144  12.852
 3820DOPC   C4A45104   5.249   9.504  12.862
 3820DOPC   C1B45105   5.779   8.284  11.952
 3820DOPC   D2B45106   5.819   8.084  12.392
 3820DOPC   C3B45107   6.249   8.094  12.742
 3820DOPC   C4B45108   6.729   8.234  12.912
 3821DOPC   NC345109   5.189  12.954  11.042
 3821DOPC   PO445110   5.469  13.084  11.222
 3821DOPC   GL145111   5.389  13.064  11.582
 3821DOPC   GL245112   5.409  12.704  11.552
 3821DOPC   C1A45113   5.499  13.244  11.962
 3821DOPC   D2A45114   5.849  13.424  11.992
 3821DOPC   C3A45115   6.139  13.344  12.272
 3821DOPC   C4A45116   6.379  13.574  12.702
 3821DOPC   C1B45117   5.469  12.644  12.002
 3821DOPC   D2B45118   5.219  12.534  12.312
 3821DOPC   C3B45119   4.849  12.224  12.112
 3821DOPC   C4B45120   4.669  12.094  11.792
 3822DOPC   NC345121  15.999  12.524  10.392
 3822DOPC   PO445122  15.569  12.464  10.372
 3822DOPC   GL145123  15.659  12.784  10.762
 3822DOPC   GL245124  15.599  13.054  10.842
 3822DOPC   C1A45125  15.789  12.684  11.182
 3822DOPC   D2A45126  15.939  12.424  11.592
 3822DOPC   C3A45127  15.959  12.564  12.052
 3822DOPC   C4A45128  15.869  12.594  12.462
 3822DOPC   C1B45129  15.439  13.154  11.202
 3822DOPC   D2B45130  15.439  13.404  11.462
 3822DOPC   C3B45131  15.119  13.604  11.582
 3822DOPC   C4B45132  15.079  13.994  11.532
 3823DOPC   NC345133  20.469  17.424  12.422
 3823DOPC   PO445134  20.519  16.984  12.542
 3823DOPC   GL145135  20.839  17.044  12.922
 3823DOPC   GL245136  20.689  16.704  12.992
 3823DOPC   C1A45137  20.979  17.434  13.062
 3823DOPC   D2A45138  21.119  17.814  13.272
 3823DOPC   C3A45139  21.529  18.014  13.172
 3823DOPC   C4A45140  21.969  18.144  13.252
 3823DOPC   C1B45141  20.639  16.834  13.522
 3823DOPC   D2B45142  20.339  16.564  13.802
 3823DOPC   C3B45143  20.009  16.214  13.652
 3823DOPC   C4B45144  19.729  15.974  13.512
 3824DOPC   NC345145  23.509   9.764  11.882
 3824DOPC   PO445146  22.999   9.684  11.882
 3824DOPC   GL145147  23.119   9.484  12.142
 3824DOPC   GL245148  23.419   9.404  12.142
 3824DOPC   C1A45149  23.069   9.384  12.542
 3824DOPC   D2A45150  23.129   9.484  12.942
 3824DOPC   C3A45151  22.839   9.684  13.142
 3824DOPC   C4A45152  22.459   9.714  13.462
 3824DOPC   C1B45153  23.549   9.254  12.472
 3824DOPC   D2B45154  23.489   9.044  12.842
 3824DOPC   C3B45155  23.709   8.604  12.962
 3824DOPC   C4B45156  23.749   8.334  13.352
 3825DOPC   NC345157  21.779   4.924  11.262
 3825DOPC   PO445158  21.339   4.994  11.282
 3825DOPC   GL145159  21.519   5.204  11.732
 3825DOPC   GL245160  21.859   5.334  11.882
 3825DOPC   C1A45161  21.519   4.984  12.232
 3825DOPC   D2A45162  21.699   4.794  12.552
 3825DOPC   C3A45163  21.669   4.924  12.952
 3825DOPC   C4A45164  21.639   4.744  13.342
 3825DOPC   C1B45165  21.599   5.504  12.212
 3825DOPC   D2B45166  21.299   5.854  12.452
 3825DOPC   C3B45167  21.349   6.024  12.902
 3825DOPC   C4B45168  21.479   5.894  13.232
 3826DOPC   NC345169  15.909   6.314  11.052
 3826DOPC   PO445170  16.189   5.964  11.082
 3826DOPC   GL145171  16.279   6.304  11.362
 3826DOPC   GL245172  16.099   6.384  11.552
 3826DOPC   C1A45173  16.549   6.224  11.742
 3826DOPC   D2A45174  16.759   6.534  12.082
 3826DOPC   C3A45175  16.899   6.884  12.342
 3826DOPC   C4A45176  17.219   6.854  12.492
 3826DOPC   C1B45177  16.219   6.274  12.062
 3826DOPC   D2B45178  16.489   6.104  12.242
 3826DOPC   C3B45179  16.689   6.344  12.552
 3826DOPC   C4B45180  16.939   6.554  12.812
 3827DOPC   NC345181   5.869   0.644  15.342
 3827DOPC   PO445182   5.599   0.424  15.282
 3827DOPC   GL145183   5.529   0.454  14.862
 3827DOPC   GL245184   5.189   0.514  14.822
 3827DOPC   C1A45185   5.529   0.164  14.582
 3827DOPC   D2A45186   5.469  -0.296  14.552
 3827DOPC   C3A45187   5.509  -0.616  14.192
 3827DOPC   C4A45188   5.559  -0.616  13.792
 3827DOPC   C1B45189   4.799   0.584  14.612
 3827DOPC   D2B45190   4.439   0.834  14.432
 3827DOPC   C3B45191   4.549   0.974  14.002
 3827DOPC   C4B45192   4.579   1.264  13.642
 3828DOPC   NC345193   1.229   1.974  11.612
 3828DOPC   PO445194   1.239   1.784  12.062
 3828DOPC   GL145195   1.519   1.704  12.322
 3828DOPC   GL245196   1.639   1.964  12.382
 3828DOPC   C1A45197   1.659   1.494  12.752
 3828DOPC   D2A45198   1.709   1.534  13.232
 3828DOPC   C3A45199   1.809   1.964  13.382
 3828DOPC   C4A45200   1.719   2.404  13.412
 3828DOPC   C1B45201   1.529   1.954  12.832
 3828DOPC   D2B45202   1.299   2.184  13.232
 3828DOPC   C3B45203   1.039   2.014  13.462
 3828DOPC   C4B45204   0.579   1.874  13.272
 3829DOPC   NC345205   0.819   2.694  15.302
 3829DOPC   PO445206   0.479   2.654  15.652
 3829DOPC   GL145207   0.359   2.624  15.222
 3829DOPC   GL245208   0.069   2.814  14.972
 3829DOPC   C1A45209   0.489   2.594  14.722
 3829DOPC   D2A45210   0.409   2.424  14.422
 3829DOPC   C3A45211   0.259   2.034  14.192
 3829DOPC   C4A45212   0.041   1.794  14.062
 3829DOPC   C1B45213  -0.009   2.684  14.522
 3829DOPC   D2B45214  -0.409   2.754  14.392
 3829DOPC   C3B45215  -0.609   2.594  13.952
 3829DOPC   C4B45216  -0.979   2.644  13.732
 3830DOPC   NC345217  20.409   6.084  11.322
 3830DOPC   PO445218  20.319   5.684  11.572
 3830DOPC   GL145219  20.459   5.974  11.882
 3830DOPC   GL245220  20.639   6.214  11.772
 3830DOPC   C1A45221  20.439   5.944  12.392
 3830DOPC   D2A45222  20.289   5.684  12.782
 3830DOPC   C3A45223  20.709   5.474  12.972
 3830DOPC   C4A45224  21.019   5.724  13.282
 3830DOPC   C1B45225  20.719   6.374  12.232
 3830DOPC   D2B45226  20.949   6.274  12.602
 3830DOPC   C3B45227  20.899   6.154  12.942
 3830DOPC   C4B45228  20.799   6.374  13.352
 3831DOPC   NC345229  20.629  22.921  12.242
 3831DOPC   PO445230  20.209  22.801  12.212
 3831DOPC   GL145231  20.139  22.771  12.612
 3831DOPC   GL245232  20.069  22.481  12.842
 3831DOPC   C1A45233  20.129  23.131  13.002
 3831DOPC   D2A45234  20.059  23.591  13.162
 3831DOPC   C3A45235  19.669  23.621  13.292
 3831DOPC   C4A45236  19.239  23.581  13.482
 3831DOPC   C1B45237  20.029  22.691  13.282
 3831DOPC   D2B45238  19.789  22.681  13.722
 3831DOPC   C3B45239  20.069  22.981  13.982
 3831DOPC   C4B45240  19.889  23.441  14.192
 3832DOPC   NC345241   1.879   4.474  15.172
 3832DOPC   PO445242   1.549   4.864  15.212
 3832DOPC   GL145243   1.779   4.854  14.842
 3832DOPC   GL245244   1.479   4.984  14.632
 3832DOPC   C1A45245   2.019   4.784  14.512
 3832DOPC   D2A45246   2.109   4.864  14.072
 3832DOPC   C3A45247   2.049   5.244  13.922
 3832DOPC   C4A45248   1.589   5.294  13.782
 3832DOPC   C1B45249   1.749   5.194  14.332
 3832DOPC   D2B45250   1.679   5.694  14.122
 3832DOPC   C3B45251   1.469   5.774  13.732
 3832DOPC   C4B45252   1.539   6.024  13.422
 3833DOPC   NC345253   3.819   4.264  10.972
 3833DOPC   PO445254   3.979   4.584  11.252
 3833DOPC   GL145255   4.009   4.414  11.682
 3833DOPC   GL245256   3.879   4.614  11.782
 3833DOPC   C1A45257   4.349   4.584  11.852
 3833DOPC   D2A45258   4.569   4.544  12.212
 3833DOPC   C3A45259   4.849   4.534  12.582
 3833DOPC   C4A45260   5.229   4.504  12.712
 3833DOPC   C1B45261   4.029   4.614  12.252
 3833DOPC   D2B45262   4.239   4.644  12.562
 3833DOPC   C3B45263   4.459   4.714  12.932
 3833DOPC   C4B45264   4.469   4.954  13.382
 3834DOPC   NC345265  21.899   6.534  15.692
 3834DOPC   PO445266  22.199   6.264  15.452
 3834DOPC   GL145267  21.939   6.214  15.012
 3834DOPC   GL245268  22.079   5.914  14.962
 3834DOPC   C1A45269  22.019   6.124  14.532
 3834DOPC   D2A45270  21.969   6.354  14.102
 3834DOPC   C3A45271  21.559   6.234  13.952
 3834DOPC   C4A45272  21.139   6.004  13.702
 3834DOPC   C1B45273  21.929   5.644  14.532
 3834DOPC   D2B45274  22.229   5.444  14.392
 3834DOPC   C3B45275  22.069   5.114  14.232
 3834DOPC   C4B45276  21.669   5.134  13.912
 3835DOPC   NC345277  21.759  11.824  11.542
 3835DOPC   PO445278  21.589  12.294  11.462
 3835DOPC   GL145279  21.539  12.134  11.922
 3835DOPC   GL245280  21.329  11.954  12.122
 3835DOPC   C1A45281  21.799  11.904  12.222
 3835DOPC   D2A45282  21.849  11.784  12.652
 3835DOPC   C3A45283  21.509  11.774  12.862
 3835DOPC   C4A45284  21.289  11.644  13.192
 3835DOPC   C1B45285  21.419  12.104  12.482
 3835DOPC   D2B45286  21.459  12.554  12.742
 3835DOPC   C3B45287  21.729  12.814  12.822
 3835DOPC   C4B45288  21.649  13.204  12.752
 3836DOPC   NC345289   8.739   1.124  15.372
 3836DOPC   PO445290   8.399   0.824  15.312
 3836DOPC   GL145291   8.339   0.614  14.882
 3836DOPC   GL245292   8.039   0.504  14.802
 3836DOPC   C1A45293   8.439   0.404  14.462
 3836DOPC   D2A45294   8.529   0.464  14.022
 3836DOPC   C3A45295   8.699   0.814  14.042
 3836DOPC   C4A45296   8.889   1.104  13.782
 3836DOPC   C1B45297   8.069   0.834  14.512
 3836DOPC   D2B45298   8.199   1.194  14.422
 3836DOPC   C3B45299   7.929   1.354  13.992
 3836DOPC   C4B45300   7.699   1.484  13.562
 3837DOPC   NC345301   1.719   1.914  11.902
 3837DOPC   PO445302   1.919   1.644  12.032
 3837DOPC   GL145303   2.069   1.624  12.452
 3837DOPC   GL245304   2.419   1.534  12.562
 3837DOPC   C1A45305   2.119   1.774  12.902
 3837DOPC   D2A45306   2.269   1.574  13.302
 3837DOPC   C3A45307   2.509   1.204  13.312
 3837DOPC   C4A45308   2.719   0.924  13.462
 3837DOPC   C1B45309   2.629   1.184  12.832
 3837DOPC   D2B45310   2.749   0.724  13.022
 3837DOPC   C3B45311   3.069   0.724  13.072
 3837DOPC   C4B45312   3.399   0.484  13.162
 3838DOPC   NC345313   9.079   8.594  14.932
 3838DOPC   PO445314   9.169   8.274  14.562
 3838DOPC   GL145315   9.089   8.284  14.142
 3838DOPC   GL245316   8.789   8.234  13.942
 3838DOPC   C1A45317   9.229   8.044  13.822
 3838DOPC   D2A45318   9.249   7.844  13.422
 3838DOPC   C3A45319   8.899   7.574  13.272
 3838DOPC   C4A45320   8.569   7.614  12.932
 3838DOPC   C1B45321   8.859   8.374  13.542
 3838DOPC   D2B45322   9.329   8.314  13.212
 3838DOPC   C3B45323   9.449   8.524  12.792
 3838DOPC   C4B45324   9.109   8.404  12.622
 3839DOPC   NC345325  10.009   3.204  10.612
 3839DOPC   PO445326   9.759   2.994  10.832
 3839DOPC   GL145327  10.069   3.054  11.132
 3839DOPC   GL245328  10.319   3.284  11.182
 3839DOPC   C1A45329  10.159   2.694  11.532
 3839DOPC   D2A45330  10.159   2.594  11.972
 3839DOPC   C3A45331  10.209   2.774  12.302
 3839DOPC   C4A45332   9.869   2.894  12.592
 3839DOPC   C1B45333  10.599   3.534  11.462
 3839DOPC   D2B45334  10.939   3.254  11.732
 3839DOPC   C3B45335  10.949   3.434  12.162
 3839DOPC   C4B45336  10.859   3.214  12.622
 3840DOPC   NC345337  11.829  22.361  11.472
 3840DOPC   PO445338  11.709  22.861  11.502
 3840DOPC   GL145339  11.489  22.761  11.932
 3840DOPC   GL245340  11.229  22.951  11.772
 3840DOPC   C1A45341  11.359  22.741  12.332
 3840DOPC   D2A45342  11.439  22.911  12.672
 3840DOPC   C3A45343  11.419  22.671  13.042
 3840DOPC   C4A45344  11.719  22.671  13.442
 3840DOPC   C1B45345  11.199  23.211  12.142
 3840DOPC   D2B45346  11.079  23.201  12.552
 3840DOPC   C3B45347  11.099  23.021  13.002
 3840DOPC   C4B45348  11.349  23.081  13.372
 3841DOPC   NC345349  13.059  16.484  14.902
 3841DOPC   PO445350  12.929  16.604  14.542
 3841DOPC   GL145351  12.889  16.524  14.192
 3841DOPC   GL245352  13.059  16.294  14.052
 3841DOPC   C1A45353  12.889  16.594  13.722
 3841DOPC   D2A45354  12.989  16.494  13.332
 3841DOPC   C3A45355  12.619  16.464  13.022
 3841DOPC   C4A45356  12.269  16.284  12.952
 3841DOPC   C1B45357  13.289  16.194  13.732
 3841DOPC   D2B45358  13.239  15.984  13.342
 3841DOPC   C3B45359  12.859  15.814  13.242
 3841DOPC   C4B45360  12.789  15.574  12.852
 3842DOPC   NC345361   1.259  17.664  15.932
 3842DOPC   PO445362   0.969  17.344  15.972
 3842DOPC   GL145363   0.929  17.374  15.592
 3842DOPC   GL245364   1.279  17.474  15.462
 3842DOPC   C1A45365   0.839  17.774  15.312
 3842DOPC   D2A45366   0.959  18.104  15.062
 3842DOPC   C3A45367   0.779  18.144  14.592
 3842DOPC   C4A45368   0.909  18.434  14.282
 3842DOPC   C1B45369   1.349  17.744  15.152
 3842DOPC   D2B45370   1.329  17.944  14.752
 3842DOPC   C3B45371   1.199  17.894  14.432
 3842DOPC   C4B45372   1.419  17.894  14.132
 3843DOPC   NC345373  19.559   2.394  15.802
 3843DOPC   PO445374  19.739   2.214  15.432
 3843DOPC   GL145375  19.839   2.084  14.972
 3843DOPC   GL245376  20.009   2.244  14.892
 3843DOPC   C1A45377  20.049   1.984  14.482
 3843DOPC   D2A45378  20.419   1.994  14.142
 3843DOPC   C3A45379  20.559   1.614  13.912
 3843DOPC   C4A45380  20.549   1.204  14.132
 3843DOPC   C1B45381  20.389   2.374  14.732
 3843DOPC   D2B45382  20.559   2.324  14.422
 3843DOPC   C3B45383  20.459   2.564  14.132
 3843DOPC   C4B45384  20.549   2.694  13.682
 3844DOPC   NC345385  20.249  24.711  12.292
 3844DOPC   PO445386  19.889  25.081  12.332
 3844DOPC   GL145387  19.849  24.771  12.672
 3844DOPC   GL245388  20.079  24.931  12.752
 3844DOPC   C1A45389  19.619  24.451  12.852
 3844DOPC   D2A45390  19.209  24.321  13.022
 3844DOPC   C3A45391  18.789  24.371  13.182
 3844DOPC   C4A45392  18.689  24.071  13.542
 3844DOPC   C1B45393  19.909  24.901  13.242
 3844DOPC   D2B45394  19.489  24.971  13.562
 3844DOPC   C3B45395  19.509  25.351  13.772
 3844DOPC   C4B45396  19.579  25.831  13.862
 3845DOPC   NC345397  22.269   5.114  15.752
 3845DOPC   PO445398  22.449   4.854  15.462
 3845DOPC   GL145399  22.499   4.754  15.072
 3845DOPC   GL245400  22.509   5.054  14.942
 3845DOPC   C1A45401  22.699   4.534  14.742
 3845DOPC   D2A45402  22.679   4.324  14.232
 3845DOPC   C3A45403  22.469   4.464  13.852
 3845DOPC   C4A45404  22.509   4.804  13.612
 3845DOPC   C1B45405  22.549   4.994  14.462
 3845DOPC   D2B45406  22.349   4.674  14.262
 3845DOPC   C3B45407  21.909   4.664  14.292
 3845DOPC   C4B45408  21.669   4.374  14.562
 3846DOPC   NC345409  19.389   6.494  11.562
 3846DOPC   PO445410  19.719   6.334  11.492
 3846DOPC   GL145411  20.039   6.214  11.802
 3846DOPC   GL245412  20.219   6.494  11.852
 3846DOPC   C1A45413  19.989   6.074  12.242
 3846DOPC   D2A45414  19.939   6.084  12.632
 3846DOPC   C3A45415  19.889   6.354  13.032
 3846DOPC   C4A45416  19.509   6.234  13.232
 3846DOPC   C1B45417  20.219   6.454  12.352
 3846DOPC   D2B45418  20.419   6.414  12.722
 3846DOPC   C3B45419  20.359   6.124  13.002
 3846DOPC   C4B45420  20.439   5.944  13.352
 3847DOPC   NC345421  11.769   8.764  10.712
 3847DOPC   PO445422  11.779   9.174  10.822
 3847DOPC   GL145423  11.799   9.354  11.232
 3847DOPC   GL245424  11.519   9.514  11.272
 3847DOPC   C1A45425  12.109   9.554  11.512
 3847DOPC   D2A45426  12.589   9.664  11.762
 3847DOPC   C3A45427  12.649   9.654  12.112
 3847DOPC   C4A45428  12.799   9.264  12.462
 3847DOPC   C1B45429  11.629   9.534  11.692
 3847DOPC   D2B45430  11.839   9.304  12.022
 3847DOPC   C3B45431  11.839   8.954  12.252
 3847DOPC   C4B45432  11.719   8.984  12.672
 3848DOPC   NC345433  11.909   4.334  10.582
 3848DOPC   PO445434  12.089   4.594  10.922
 3848DOPC   GL145435  12.219   4.454  11.292
 3848DOPC   GL245436  12.439   4.174  11.352
 3848DOPC   C1A45437  12.249   4.564  11.632
 3848DOPC   D2A45438  12.459   4.624  12.002
 3848DOPC   C3A45439  12.829   4.824  11.902
 3848DOPC   C4A45440  13.149   5.114  12.002
 3848DOPC   C1B45441  12.179   4.074  11.682
 3848DOPC   D2B45442  11.889   4.054  12.152
 3848DOPC   C3B45443  12.009   3.774  12.612
 3848DOPC   C4B45444  12.279   3.734  12.902
 3849DOPC   NC345445  15.409  22.291  12.062
 3849DOPC   PO445446  15.789  21.961  11.962
 3849DOPC   GL145447  15.919  21.941  12.352
 3849DOPC   GL245448  16.149  22.151  12.292
 3849DOPC   C1A45449  15.629  22.161  12.822
 3849DOPC   D2A45450  15.449  22.431  12.852
 3849DOPC   C3A45451  15.079  22.601  13.152
 3849DOPC   C4A45452  14.799  22.311  13.392
 3849DOPC   C1B45453  16.089  22.021  12.812
 3849DOPC   D2B45454  16.089  22.091  13.132
 3849DOPC   C3B45455  15.819  22.311  13.302
 3849DOPC   C4B45456  15.559  22.721  13.262
    1NP      Au45457  12.829  12.524   7.952
    1NP      Au45458  12.679  12.914   8.102
    1NP      Au45459  12.489  12.794   8.262
    1NP      Au45460  12.629  12.364   8.082
    1NP      Au45461  12.889  12.434   8.222
    1NP      Au45462  12.669  12.314   7.782
    1NP      Au45463  12.959  12.364   7.712
    1NP      Au45464  12.869  12.204   7.972
    1NP      Au45465  12.569  13.064   8.332
    1NP      Au45466  12.479  12.894   8.552
    1NP      Au45467  12.199  12.734   8.282
    1NP      Au45468  12.359  12.244   8.052
    1NP      Au45469  12.769  12.184   8.262
    1NP      Au45470  12.269  13.014   8.332
    1NP      Au45471  13.089  12.384   8.422
    1NP      Au45472  12.609  12.104   8.002
    1NP      Au45473  12.429  12.214   7.782
    1NP      Au45474  12.839  12.084   7.712
    1NP      Au45475  13.079  12.184   8.192
    1NP      Au45476  12.479  12.014   8.272
    1NP      Au45477  12.699  12.934   8.812
    1NP      Au45478  12.959  12.104   8.492
    1NP      Au45479  12.569  11.944   7.702
    1NP      Au45480  12.109  12.204   7.882
    1NP      Au45481  12.549  12.864   7.872
    1NP      Au45482  12.859  12.694   8.172
    1NP      Au45483  12.729  12.864   8.392
    1NP      Au45484  12.399  13.014   8.062
    1NP      Au45485  12.309  12.744   8.012
    1NP      Au45486  12.479  13.154   7.812
    1NP      Au45487  12.469  12.954   7.592
    1NP      Au45488  12.249  12.974   7.812
    1NP      Au45489  12.909  12.624   8.442
    1NP      Au45490  12.679  12.684   8.612
    1NP      Au45491  12.759  13.074   8.552
    1NP      Au45492  12.369  13.294   8.222
    1NP      Au45493  12.129  12.954   8.082
    1NP      Au45494  12.949  12.864   8.612
    1NP      Au45495  12.149  12.504   8.012
    1NP      Au45496  12.229  13.234   7.992
    1NP      Au45497  12.439  13.404   7.942
    1NP      Au45498  12.279  13.194   7.622
    1NP      Au45499  12.109  12.724   7.812
    1NP      Au45500  12.049  13.234   8.252
    1NP      Au45501  12.509  12.374   8.652
    1NP      Au45502  11.939  12.724   8.082
    1NP      Au45503  12.219  13.484   7.762
    1NP      Au45504  12.509  13.544   8.242
    1NP      Au45505  12.949  12.934   8.062
    1NP      Au45506  12.589  12.664   8.042
    1NP      Au45507  12.649  12.574   8.332
    1NP      Au45508  13.019  12.874   8.342
    1NP      Au45509  12.859  13.124   8.282
    1NP      Au45510  13.259  12.854   8.102
    1NP      Au45511  13.169  13.114   7.942
    1NP      Au45512  13.139  13.104   8.212
    1NP      Au45513  12.389  12.504   8.192
    1NP      Au45514  12.419  12.614   8.462
    1NP      Au45515  12.779  12.374   8.482
    1NP      Au45516  13.209  12.684   8.472
    1NP      Au45517  13.019  13.124   8.482
    1NP      Au45518  12.509  12.324   8.332
    1NP      Au45519  12.699  13.304   8.352
    1NP      Au45520  13.309  12.954   8.412
    1NP      Au45521  13.409  12.684   8.262
    1NP      Au45522  13.419  13.054   8.112
    1NP      Au45523  12.999  13.364   8.292
    1NP      Au45524  13.219  12.944   8.692
    1NP      Au45525  12.179  12.824   8.582
    1NP      Au45526  12.879  13.384   8.612
    1NP      Au45527  13.619  12.934   8.302
    1NP      Au45528  13.399  12.444   8.492
    1NP      Au45529  12.759  13.054   7.872
    1NP      Au45530  12.929  12.654   7.722
    1NP      Au45531  13.149  12.794   7.572
    1NP      Au45532  12.959  13.204   7.732
    1NP      Au45533  12.689  13.154   7.622
    1NP      Au45534  12.929  13.234   8.032
    1NP      Au45535  12.619  13.214   8.082
    1NP      Au45536  12.709  13.354   7.862
    1NP      Au45537  13.059  12.524   7.482
    1NP      Au45538  13.109  12.734   7.302
    1NP      Au45539  13.419  12.884   7.582
    1NP      Au45540  13.219  13.334   7.772
    1NP      Au45541  12.829  13.414   7.592
    1NP      Au45542  13.359  12.604   7.492
    1NP      Au45543  12.489  13.164   7.402
    1NP      Au45544  12.979  13.464   7.892
    1NP      Au45545  13.189  13.354   8.072
    1NP      Au45546  12.779  13.474   8.122
    1NP      Au45547  12.509  13.374   7.622
    1NP      Au45548  13.119  13.564   7.612
    1NP      Au45549  12.919  12.694   7.042
    1NP      Au45550  12.599  13.474   7.332
    1NP      Au45551  13.049  13.634   8.152
    1NP      Au45552  13.489  13.364   7.952
    1NP      Au45553  13.059  12.694   7.952
    1NP      Au45554  12.729  12.874   7.652
    1NP      Au45555  12.869  12.744   7.442
    1NP      Au45556  13.199  12.554   7.742
    1NP      Au45557  13.279  12.824   7.832
    1NP      Au45558  13.089  12.394   7.982
    1NP      Au45559  13.119  12.594   8.212
    1NP      Au45560  13.339  12.594   8.022
    1NP      Au45561  12.669  12.974   7.382
    1NP      Au45562  12.929  12.974   7.242
    1NP      Au45563  12.859  12.484   7.282
    1NP      Au45564  13.229  12.324   7.582
    1NP      Au45565  13.479  12.634   7.752
    1NP      Au45566  12.679  12.714   7.232
    1NP      Au45567  13.439  13.084   7.812
    1NP      Au45568  13.339  12.344   7.872
    1NP      Au45569  13.119  12.144   7.812
    1NP      Au45570  13.289  12.374   8.212
    1NP      Au45571  13.539  12.824   7.982
    1NP      Au45572  13.529  12.354   7.612
    1NP      Au45573  13.059  13.254   7.182
    1NP      Au45574  13.679  12.904   7.722
    1NP      Au45575  13.339  12.074   8.062
    1NP      Au45576  13.119  12.014   7.542
    1NP      Au45577  12.649  12.634   7.772
    1NP      Au45578  12.989  12.904   7.772
    1NP      Au45579  12.959  13.014   7.522
    1NP      Au45580  12.589  12.694   7.492
    1NP      Au45581  12.759  12.474   7.552
    1NP      Au45582  12.369  12.714   7.702
    1NP      Au45583  12.429  12.494   7.902
    1NP      Au45584  12.479  12.464   7.612
    1NP      Au45585  13.209  13.074   7.652
    1NP      Au45586  13.209  13.004   7.382
    1NP      Au45587  12.789  13.234   7.372
    1NP      Au45588  12.419  12.844   7.342
    1NP      Au45589  12.559  12.464   7.342
    1NP      Au45590  13.039  13.264   7.492
    1NP      Au45591  12.949  12.244   7.472
    1NP      Au45592  12.289  12.634   7.442
    1NP      Au45593  12.199  12.894   7.532
    1NP      Au45594  12.199  12.454   7.712
    1NP      Au45595  12.649  12.224   7.522
    1NP      Au45596  12.399  12.624   7.112
    1NP      Au45597  13.419  12.834   7.262
    1NP      Au45598  12.729  12.224   7.212
    1NP      Au45599  11.999  12.634   7.522
    1NP      Au45600  12.189  13.104   7.322
    1NP       S45601  12.269  12.064   8.212
    1NP       S45602  12.699  11.964   8.322
    1NP       S45603  12.479  12.994   8.782
    1NP       S45604  12.919  12.834   8.862
    1NP       S45605  12.809  12.184   8.662
    1NP       S45606  13.039  11.964   8.312
    1NP       S45607  12.189  13.374   8.382
    1NP       S45608  11.949  13.114   8.072
    1NP       S45609  12.609  12.544   8.812
    1NP       S45610  12.429  12.184   8.532
    1NP       S45611  11.979  12.584   8.262
    1NP       S45612  11.869  12.774   7.872
    1NP       S45613  12.519  13.444   8.452
    1NP       S45614  12.479  13.624   8.012
    1NP       S45615  13.219  12.724   8.712
    1NP       S45616  13.219  13.174   8.632
    1NP       S45617  12.229  12.604   8.622
    1NP       S45618  12.179  13.044   8.562
    1NP       S45619  12.729  13.244   8.732
    1NP       S45620  13.049  13.504   8.492
    1NP       S45621  13.219  12.364   8.622
    1NP       S45622  13.549  12.504   8.332
    1NP       S45623  12.009  12.314   8.062
    1NP       S45624  12.219  12.094   7.712
    1NP       S45625  12.559  11.904   7.912
    1NP       S45626  12.539  11.994   7.492
    1NP       S45627  12.939  12.124   7.242
    1NP       S45628  12.499  12.264   7.242
    1NP       S45629  12.049  13.354   7.852
    1NP       S45630  12.379  13.594   7.632
    1NP       S45631  12.379  13.374   7.352
    1NP       S45632  12.759  13.604   7.462
    1NP       S45633  12.839  13.244   7.152
    1NP       S45634  13.259  13.134   7.192
    1NP       S45635  12.859  12.914   7.012
    1NP       S45636  12.999  12.484   7.082
    1NP       S45637  12.559  12.764   7.022
    1NP       S45638  12.209  12.534   7.222
    1NP       S45639  11.949  12.834   7.502
    1NP       S45640  12.039  12.394   7.532
    1NP       S45641  12.059  13.204   7.482
    1NP       S45642  12.299  12.964   7.182
    1NP       S45643  13.299  12.664   7.182
    1NP       S45644  13.549  12.964   7.392
    1NP       S45645  13.559  12.504   7.412
    1NP       S45646  13.559  12.254   7.822
    1NP       S45647  13.329  12.094   7.472
    1NP       S45648  12.949  11.894   7.602
    1NP       S45649  13.449  12.194   8.202
    1NP       S45650  13.169  11.944   7.932
    1NP       S45651  13.729  12.804   8.142
    1NP       S45652  13.529  13.074   8.472
    1NP       S45653  13.449  13.394   7.742
    1NP       S45654  13.519  13.284   8.152
    1NP       S45655  13.179  13.464   7.412
    1NP       S45656  13.019  13.684   7.792
    1NP       S45657  13.269  13.574   8.122
    1NP       S45658  12.819  13.704   8.212
    1NP       S45659  13.689  13.104   7.842
    1NP       S45660  13.729  12.684   7.722
    2OT     OT145661  12.129  13.794   7.942
    2OT     OT245662  11.939  14.114   8.272
    3OT     OT145663  14.129  12.414   7.622
    3OT     OT245664  14.579  12.484   7.592
    4OT     OT145665  12.779  13.014   6.572
    4OT     OT245666  12.739  13.204   6.162
    5OT     OT145667  12.449  13.834   7.112
    5OT     OT245668  12.339  14.254   7.102
    6OT     OT145669  11.569  13.094   7.682
    6OT     OT245670  11.139  13.094   7.432
    7OT     OT145671  12.869  13.824   8.602
    7OT     OT245672  13.009  14.114   8.922
    8OT     OT145673  13.969  13.444   8.142
    8OT     OT245674  14.219  13.364   7.702
    9OT     OT145675  13.809  12.154   7.322
    9OT     OT245676  14.009  11.844   7.662
   10OT     OT145677  13.199  13.314   6.692
   10OT     OT245678  13.219  12.994   6.322
   11OT     OT145679  13.689  13.604   7.392
   11OT     OT245680  14.109  13.594   7.312
   12OT     OT145681  12.139  12.824   9.032
   12OT     OT245682  12.239  13.234   9.212
   13OT     OT145683  13.249  12.014   8.602
   13OT     OT245684  13.359  11.544   8.522
   14OT     OT145685  13.549  13.404   8.902
   14OT     OT245686  13.489  13.814   9.102
   15OT     OT145687  12.949  13.984   7.402
   15OT     OT245688  13.299  14.214   7.262
   16OT     OT145689  12.839  11.684   8.642
   16OT     OT245690  12.809  11.404   8.932
   17OT     OT145691  11.999  11.814   8.502
   17OT     OT245692  11.769  11.784   8.892
   18OT     OT145693  12.379  12.254   6.902
   18OT     OT245694  12.389  11.794   6.872
   19OT     OT145695  12.789  11.854   7.302
   19OT     OT245696  13.229  11.604   7.182
   20OT     OT145697  13.019  11.444   7.672
   20OT     OT245698  13.409  11.304   7.622
   21OT     OT145699  14.019  13.014   7.302
   21OT     OT245700  14.449  12.974   7.442
   22MUS   MUS145701  12.559  11.504   7.592
   22MUS   MUS245702  12.189  11.314   7.972
   22MUS   MUS345703  11.919  11.324   8.352
   22MUS   MUS445704  11.639  11.134   8.642
   23MUS   MUS145705  12.299  13.814   8.632
   23MUS   MUS245706  12.159  13.754   8.992
   23MUS   MUS345707  12.339  13.854   9.392
   23MUS   MUS445708  12.449  13.784   9.752
   24MUS   MUS145709  13.029  14.114   7.982
   24MUS   MUS245710  13.299  14.204   8.342
   24MUS   MUS345711  13.279  14.564   8.712
   24MUS   MUS445712  13.309  14.664   9.212
   25MUS   MUS145713  12.989  11.574   8.202
   25MUS   MUS245714  12.889  11.204   8.472
   25MUS   MUS345715  12.979  10.914   8.852
   25MUS   MUS445716  12.899  10.574   9.092
   26MUS   MUS145717  12.629  13.634   8.972
   26MUS   MUS245718  12.529  14.104   8.962
   26MUS   MUS345719  12.349  14.564   8.982
   26MUS   MUS445720  12.069  14.764   9.292
   27MUS   MUS145721  12.829  13.614   6.822
   27MUS   MUS245722  12.819  13.604   6.432
   27MUS   MUS345723  12.979  13.784   6.062
   27MUS   MUS445724  13.049  13.644   5.622
   28MUS   MUS145725  13.619  13.824   8.002
   28MUS   MUS245726  13.959  13.964   8.202
   28MUS   MUS345727  14.099  14.184   8.542
   28MUS   MUS445728  14.279  14.194   8.902
   29MUS   MUS145729  11.549  13.264   8.352
   29MUS   MUS245730  11.339  13.244   8.722
   29MUS   MUS345731  11.129  13.614   8.912
   29MUS   MUS445732  10.759  13.664   9.082
   30MUS   MUS145733  12.389  12.384   9.012
   30MUS   MUS245734  12.689  12.254   9.282
   30MUS   MUS345735  12.849  12.254   9.682
   30MUS   MUS445736  12.879  12.254  10.112
   31MUS   MUS145737  12.009  13.554   7.032
   31MUS   MUS245738  11.679  13.714   6.642
   31MUS   MUS345739  11.539  13.774   6.142
   31MUS   MUS445740  11.469  13.834   5.752
   32MUS   MUS145741  12.429  12.684   6.592
   32MUS   MUS245742  12.439  12.794   6.192
   32MUS   MUS345743  12.199  12.704   5.862
   32MUS   MUS445744  12.149  12.284   5.542
   33MUS   MUS145745  12.959  12.024   6.762
   33MUS   MUS245746  13.179  12.044   6.352
   33MUS   MUS345747  13.169  12.244   6.012
   33MUS   MUS445748  13.199  12.234   5.522
   34MUS   MUS145749  12.059  13.324   8.702
   34MUS   MUS245750  11.809  13.314   8.962
   34MUS   MUS345751  11.499  13.294   9.242
   34MUS   MUS445752  11.379  12.954   9.462
   35MUS   MUS145753  13.049  13.474   8.952
   35MUS   MUS245754  12.839  13.274   9.312
   35MUS   MUS345755  12.609  13.024   9.602
   35MUS   MUS445756  12.279  13.034   9.852
   36MUS   MUS145757  13.449  11.814   7.792
   36MUS   MUS245758  13.689  11.794   8.152
   36MUS   MUS345759  13.919  11.464   8.422
   36MUS   MUS445760  14.199  11.184   8.732
   37MUS   MUS145761  14.049  12.884   7.872
   37MUS   MUS245762  14.539  12.714   8.042
   37MUS   MUS345763  14.779  12.744   8.422
   37MUS   MUS445764  14.999  12.724   8.822
   38MUS   MUS145765  13.519  12.674   8.742
   38MUS   MUS245766  13.959  12.544   8.942
   38MUS   MUS345767  14.199  12.224   9.052
   38MUS   MUS445768  14.399  12.154   9.472
   39MUS   MUS145769  12.459  13.194   6.852
   39MUS   MUS245770  12.309  13.184   6.482
   39MUS   MUS345771  12.249  13.224   5.972
   39MUS   MUS445772  12.149  13.274   5.582
   40MUS   MUS145773  11.989  11.774   7.952
   40MUS   MUS245774  11.569  11.814   8.182
   40MUS   MUS345775  11.299  11.584   8.412
   40MUS   MUS445776  11.209  11.364   8.772
   41MUS   MUS145777  11.569  12.814   7.122
   41MUS   MUS245778  11.459  12.894   6.622
   41MUS   MUS345779  11.269  12.794   6.142
   41MUS   MUS445780  11.299  12.574   5.792
   42MUS   MUS145781  13.109  12.364   8.992
   42MUS   MUS245782  13.179  11.904   9.062
   42MUS   MUS345783  13.269  11.494   9.092
   42MUS   MUS445784  13.509  11.164   9.332
   43MUS   MUS145785  13.719  12.494   6.982
   43MUS   MUS245786  13.969  12.574   6.582
   43MUS   MUS345787  14.049  12.504   6.102
   43MUS   MUS445788  13.979  12.604   5.652
   44MUS   MUS145789  12.449  11.594   8.292
   44MUS   MUS245790  12.329  11.424   8.672
   44MUS   MUS345791  12.119  11.344   9.102
   44MUS   MUS445792  12.049  10.924   9.282
   45MUS   MUS145793  12.139  12.344   8.482
   45MUS   MUS245794  11.939  12.274   8.812
   45MUS   MUS345795  11.849  12.284   9.222
   45MUS   MUS445796  12.059  12.154   9.572
   46MUS   MUS145797  13.269  12.994   9.122
   46MUS   MUS245798  13.279  13.424   9.442
   46MUS   MUS345799  13.009  13.804   9.422
   46MUS   MUS445800  12.839  14.134   9.732
   47MUS   MUS145801  11.759  12.454   7.832
   47MUS   MUS245802  11.589  12.304   8.292
   47MUS   MUS345803  11.409  12.134   8.622
   47MUS   MUS445804  11.149  11.954   8.972
   48MUS   MUS145805  12.769  12.724   9.152
   48MUS   MUS245806  13.089  12.684   9.522
   48MUS   MUS345807  13.469  12.974   9.602
   48MUS   MUS445808  13.749  12.984   9.992
   49MUS   MUS145809  13.489  13.494   8.422
   49MUS   MUS245810  13.659  13.834   8.602
   49MUS   MUS345811  13.649  14.194   8.752
   49MUS   MUS445812  13.749  14.384   9.122
   50MUS   MUS145813  13.819  13.144   8.462
   50MUS   MUS245814  13.989  13.154   8.842
   50MUS   MUS345815  13.849  13.104   9.322
   50MUS   MUS445816  13.909  13.494   9.662
   51MUS   MUS145817  12.569  14.034   8.132
   51MUS   MUS245818  12.689  14.504   8.182
   51MUS   MUS345819  12.649  14.994   8.352
   51MUS   MUS445820  12.679  15.314   8.722
   52MUS   MUS145821  14.029  12.674   8.352
   52MUS   MUS245822  14.339  13.084   8.282
   52MUS   MUS345823  14.799  13.264   8.422
   52MUS   MUS445824  14.939  13.414   8.882
   53MUS   MUS145825  12.059  13.034   7.032
   53MUS   MUS245826  11.959  12.584   6.792
   53MUS   MUS345827  12.159  12.314   6.392
   53MUS   MUS445828  12.059  12.084   6.002
   54MUS   MUS145829  13.389  12.354   6.652
   54MUS   MUS245830  13.499  12.624   6.272
   54MUS   MUS345831  13.759  12.924   6.212
   54MUS   MUS445832  13.749  13.084   5.722
   55MUS   MUS145833  12.439  11.964   8.742
   55MUS   MUS245834  12.349  11.794   9.142
   55MUS   MUS345835  12.769  11.714   9.342
   55MUS   MUS445836  12.769  11.534   9.762
   56MUS   MUS145837  11.749  12.884   8.702
   56MUS   MUS245838  11.419  12.724   8.702
   56MUS   MUS345839  10.989  12.794   8.852
   56MUS   MUS445840  10.819  12.784   9.312
   57MUS   MUS145841  13.899  12.254   8.052
   57MUS   MUS245842  14.209  11.944   8.192
   57MUS   MUS345843  14.589  11.914   8.462
   57MUS   MUS445844  15.039  11.804   8.782
   58MUS   MUS145845  13.529  13.214   7.082
   58MUS   MUS245846  13.849  13.494   6.912
   58MUS   MUS345847  13.949  13.444   6.472
   58MUS   MUS445848  14.069  13.474   5.982
   59MUS   MUS145849  11.579  12.784   8.192
   59MUS   MUS245850  11.189  12.594   8.272
   59MUS   MUS345851  10.719  12.654   8.342
   59MUS   MUS445852  10.379  12.424   8.622
   60MUS   MUS145853  13.719  12.224   8.622
   60MUS   MUS245854  13.589  12.214   9.022
   60MUS   MUS345855  13.789  11.884   9.292
   60MUS   MUS445856  13.889  11.604   9.662
   61MUS   MUS145857  11.849  13.664   8.422
   61MUS   MUS245858  11.709  13.764   8.712
   61MUS   MUS345859  11.549  13.864   9.132
   61MUS   MUS445860  11.549  14.044   9.462
 3850W        W45861  15.549  20.414   2.428
 3851W        W45862   0.819   1.714   9.222
 3852W        W45863  22.749  18.564   8.542
 3853W        W45864  10.059  25.371   2.542
 3854W        W45865  14.079  24.171   9.612
 3855W        W45866   4.139   3.124   0.778
 3856W        W45867   2.739  18.464   1.658
 3857W        W45868  13.319  22.691   8.702
 3858W        W45869   8.739  12.394  10.452
 3859W        W45870   6.809  22.881   1.678
 3860W        W45871   8.549  16.044   1.508
 3861W        W45872   0.999  17.504   9.772
 3862W        W45873  24.639   9.374  11.062
 3863W        W45874  21.329   0.694  11.672
 3864W        W45875   0.619  24.011   2.308
 3865W        W45876   6.409   5.214   9.662
 3866W        W45877  15.199   0.044  10.512
 3867W        W45878  23.049   4.734   8.552
 3868W        W45879  14.249   9.934  15.692
 3869W        W45880  18.519  20.954   0.208
 3870W        W45881  10.569  23.581   8.882
 3871W        W45882   6.509  14.584   1.908
 3872W        W45883   8.299   2.104   3.622
 3873W        W45884  22.079  12.624   1.758
 3874W        W45885  12.839   1.384   9.782
 3875W        W45886   7.979  18.124  11.542
 3876W        W45887  11.539  17.034   2.378
 3877W        W45888  13.389  23.271   2.932
 3878W        W45889  20.139   5.894   2.238
 3879W        W45890  22.939  23.561   8.932
 3880W        W45891  10.579  15.794  10.642
 3881W        W45892   4.879   2.494   1.718
 3882W        W45893  16.649  16.384  11.122
 3883W        W45894  16.509  18.984   0.508
 3884W        W45895  15.159   6.654  15.232
 3885W        W45896   1.399  25.571   0.828
 3886W        W45897  18.529   9.994   2.328
 3887W        W45898   8.989   3.264   1.718
 3888W        W45899  18.119  14.624   2.872
 3889W        W45900   3.539   3.544   0.088
 3890W        W45901  20.859   4.804   1.768
 3891W        W45902  14.039  16.284  10.052
 3892W        W45903  11.799  12.904  15.812
 3893W        W45904  15.969  22.101   2.902
 3894W        W45905   7.479   7.814   7.862
 3895W        W45906  10.789  11.224   1.108
 3896W        W45907   2.399  11.224   7.892
 3897W        W45908  19.449  12.414   8.622
 3898W        W45909  12.759   8.434   0.698
 3899W        W45910  14.769   8.454  14.892
 3900W        W45911  24.069   1.004   3.472
 3901W        W45912  16.609  16.664   9.392
 3902W        W45913  24.249   7.904   8.702
 3903W        W45914  24.709  15.504   1.648
 3904W        W45915  17.199   1.954  15.812
 3905W        W45916  21.939  20.624   9.082
 3906W        W45917   7.499  23.231   0.178
 3907W        W45918  18.109  20.254   2.338
 3908W        W45919  14.429  15.684  11.222
 3909W        W45920  10.939   3.204   8.922
 3910W        W45921   3.409   6.214   7.512
 3911W        W45922   8.949  20.334   2.448
 3912W        W45923   0.319  11.194  10.832
 3913W        W45924  10.999  18.914  15.412
 3914W        W45925   1.969  24.421  11.092
 3915W        W45926  21.259  12.114   3.202
 3916W        W45927   7.909  12.724   1.108
 3917W        W45928  14.709   8.344   2.138
 3918W        W45929   0.869   3.614   3.302
 3919W        W45930   9.529  15.544   9.422
 3920W        W45931   0.269  17.764   3.182
 3921W        W45932  22.279   3.194   2.952
 3922W        W45933  13.509  13.974   5.332
 3923W        W45934  12.369  18.484   3.012
 3924W        W45935  17.919  17.684   2.922
 3925W        W45936  20.859  16.374   1.558
 3926W        W45937  17.949   9.714   9.692
 3927W        W45938   2.439   1.714   2.512
 3928W        W45939   8.059   4.244   3.712
 3929W        W45940   4.929  21.891  15.022
 3930W        W45941  18.139  23.171   1.038
 3931W        W45942   6.919  11.804  10.772
 3932W        W45943   2.809   1.484   0.018
 3933W        W45944   8.089  25.091  15.092
 3934W        W45945  13.949   0.624   2.842
 3935W        W45946  17.679  14.644   7.692
 3936W        W45947  16.079  11.194   8.312
 3937W        W45948   2.729  23.051   8.722
 3938W        W45949   5.399  22.941  10.472
 3939W        W45950  12.989  24.141   0.658
 3940W        W45951  21.549   8.434   0.908
 3941W        W45952  19.039   3.014   2.298
 3942W        W45953  16.719   1.294  10.252
 3943W        W45954   5.109   1.534   1.228
 3944W        W45955   1.189   6.574   7.332
 3945W        W45956  23.969   1.184   2.892
 3946W        W45957  24.699  22.061   9.852
 3947W        W45958  12.069   3.864   9.762
 3948W        W45959   6.389   9.564   9.192
 3949W        W45960  10.809   6.224   0.398
 3950W        W45961   1.699  20.984   8.342
 3951W        W45962  12.339   7.144   3.602
 3952W        W45963  10.239   7.494   9.662
 3953W        W45964  16.239   7.804   1.338
 3954W        W45965  13.459  12.594   4.302
 3955W        W45966  18.559   4.244  10.222
 3956W        W45967   4.989   3.284  15.072
 3957W        W45968   1.549  24.241   9.922
 3958W        W45969   8.419   6.664   4.482
 3959W        W45970   8.639   8.704   1.368
 3960W        W45971   7.449  19.624  15.152
 3961W        W45972   2.099  19.704   9.672
 3962W        W45973   6.419   3.654   1.508
 3963W        W45974   0.859   5.104   8.072
 3964W        W45975  17.239   4.604   8.382
 3965W        W45976  12.489  20.264   3.492
 3966W        W45977   9.239   1.204  15.142
 3967W        W45978   4.639   7.624   9.012
 3968W        W45979  10.059   6.374   3.852
 3969W        W45980   3.759  12.004   2.892
 3970W        W45981   4.239  19.784   9.772
 3971W        W45982  23.819  11.454   3.182
 3972W        W45983  19.739   8.574   8.572
 3973W        W45984  23.739   5.104  11.082
 3974W        W45985   5.509  22.161   3.632
 3975W        W45986  21.699  24.691   8.952
 3976W        W45987  23.039   7.674  10.832
 3977W        W45988  18.839   9.304   8.632
 3978W        W45989   0.379  12.454  10.262
 3979W        W45990  25.409  23.991   9.442
 3980W        W45991   3.569  24.251   9.582
 3981W        W45992  11.569  24.921   1.308
 3982W        W45993  17.459  20.084   0.828
 3983W        W45994  20.969  23.571   7.882
 3984W        W45995  13.049  19.694  14.902
 3985W        W45996  19.259  21.861  15.262
 3986W        W45997  20.169   4.494  10.362
 3987W        W45998   2.189   6.734   8.262
 3988W        W45999  11.029   1.524   9.552
 3989W        W46000  13.539  14.734  10.152
 3990W        W46001   9.239  24.081   2.892
 3991W        W46002  20.429   6.124  15.022
 3992W        W46003  23.179  15.294   1.508
 3993W        W46004  19.849   0.514   8.462
 3994W        W46005  23.829  21.571   0.238
 3995W        W46006  23.069  17.544   1.108
 3996W        W46007  13.749  13.184  15.452
 3997W        W46008   0.839   7.094   6.832
 3998W        W46009   7.239  23.681  10.402
 3999W        W46010   7.899   0.214  15.832
 4000W        W46011   5.789  10.024   1.128
 4001W        W46012   6.969   1.964   2.632
 4002W        W46013  21.649   9.774   8.912
 4003W        W46014   8.369  17.704   2.068
 4004W        W46015   4.269  24.751   2.762
 4005W        W46016  13.139  14.944   1.188
 4006W        W46017  13.879   5.364   0.348
 4007W        W46018  24.629  13.294   4.092
 4008W        W46019  17.089  21.991   7.152
 4009W        W46020  14.879  23.901   9.402
 4010W        W46021   2.319   9.954   1.568
 4011W        W46022   2.569  25.121   2.552
 4012W        W46023   4.429  16.034   0.348
 4013W        W46024   1.719   0.074  15.042
 4014W        W46025  10.789   7.764  10.252
 4015W        W46026  15.539  14.434   4.902
 4016W        W46027   8.889  15.754   3.052
 4017W        W46028   9.069  24.741   4.162
 4018W        W46029   0.729  21.054  11.372
 4019W        W46030   5.599  10.244  10.862
 4020W        W46031   3.459   6.354   2.912
 4021W        W46032  17.099  14.264   2.028
 4022W        W46033   7.429  19.624   9.482
 4023W        W46034  16.259   8.174   3.422
 4024W        W46035  23.529   5.914   2.502
 4025W        W46036  11.099  23.831   3.442
 4026W        W46037  15.639  24.871  11.582
 4027W        W46038  13.919  14.474   0.628
 4028W        W46039   0.969   2.894  15.802
 4029W        W46040  22.449  18.354  11.172
 4030W        W46041  15.139   9.094   2.682
 4031W        W46042   7.739  17.684  10.852
 4032W        W46043  15.929   1.914   1.488
 4033W        W46044   8.339  19.464  10.992
 4034W        W46045  19.589   9.794   8.272
 4035W        W46046   3.439  10.944   0.268
 4036W        W46047  19.499   3.314   9.822
 4037W        W46048   6.429   9.524  15.622
 4038W        W46049   3.059   9.924   2.992
 4039W        W46050  16.399  15.404   8.702
 4040W        W46051  21.499  25.101   2.358
 4041W        W46052  15.239  16.234   1.668
 4042W        W46053  12.069  22.321  10.092
 4043W        W46054   7.879  13.254   7.462
 4044W        W46055   8.569   7.384  15.612
 4045W        W46056   1.479  17.404   1.668
 4046W        W46057   0.779  13.484   1.698
 4047W        W46058  15.079  14.394   1.938
 4048W        W46059   6.689   1.384   9.892
 4049W        W46060  20.289  16.334  11.562
 4050W        W46061   3.209   1.874  15.732
 4051W        W46062   2.649  18.784   4.142
 4052W        W46063  12.169  10.014   1.278
 4053W        W46064   7.219   4.634   1.648
 4054W        W46065   7.059  12.844   3.362
 4055W        W46066  22.329  12.564   2.702
 4056W        W46067  24.559  19.684  12.442
 4057W        W46068  20.829   5.814   1.708
 4058W        W46069  11.899   0.084   9.502
 4059W        W46070   4.619  12.924   0.758
 4060W        W46071  20.589  13.894   0.628
 4061W        W46072   6.999   0.124   8.592
 4062W        W46073  11.759  16.544   2.478
 4063W        W46074  19.299  12.964   8.922
 4064W        W46075   8.669  17.094   7.882
 4065W        W46076   1.549  19.614   0.078
 4066W        W46077  19.269  22.801   3.872
 4067W        W46078  11.249   5.044   8.682
 4068W        W46079  15.499  20.784   3.902
 4069W        W46080  19.489   2.644   0.358
 4070W        W46081  19.729   6.054   1.528
 4071W        W46082  10.479   1.544   3.112
 4072W        W46083  17.489  24.171   9.932
 4073W        W46084   5.189   1.594   0.268
 4074W        W46085  10.279  17.194   3.272
 4075W        W46086   2.229   3.774  11.122
 4076W        W46087  12.689   2.104   1.518
 4077W        W46088  19.939  18.914   7.882
 4078W        W46089  21.849   8.834   8.722
 4079W        W46090  15.589  15.914  10.372
 4080W        W46091  25.049  17.394   7.292
 4081W        W46092  11.789   4.174  15.262
 4082W        W46093   9.869   5.674   9.302
 4083W        W46094  10.779   8.754   2.428
 4084W        W46095   3.059  14.114  10.642
 4085W        W46096   6.149  15.484   0.998
 4086W        W46097   3.619  12.764   1.318
 4087W        W46098  23.009   7.934   1.848
 4088W        W46099   3.849   7.814   7.022
 4089W        W46100  13.469  22.431  15.032
 4090W        W46101   0.809   4.194   9.552
 4091W        W46102  11.099  10.704  14.922
 4092W        W46103   6.909   1.894   3.242
 4093W        W46104   2.239   7.704   8.432
 4094W        W46105  11.599   2.824  14.882
 4095W        W46106  20.359   8.574  10.662
 4096W        W46107  14.309  12.784  10.132
 4097W        W46108   1.119   9.354   0.708
 4098W        W46109  17.699   2.134   0.098
 4099W        W46110  25.379  20.734  11.552
 4100W        W46111  21.829   5.084   2.992
 4101W        W46112   7.219  15.134   2.792
 4102W        W46113   3.559  10.624  10.492
 4103W        W46114   0.509  13.824   9.442
 4104W        W46115  25.259  21.651  15.562
 4105W        W46116  13.169   1.024   2.592
 4106W        W46117   5.729  18.374  11.402
 4107W        W46118  22.189   0.144   4.192
 4108W        W46119  25.409  22.571   3.622
 4109W        W46120  14.319  20.754   2.248
 4110W        W46121  18.519   1.554  10.592
 4111W        W46122   3.879  11.844   9.712
 4112W        W46123  21.209   2.794   8.862
 4113W        W46124  20.069   3.414  10.782
 4114W        W46125  19.989   9.984   1.658
 4115W        W46126  21.759  23.401   8.492
 4116W        W46127  14.759  17.814   9.332
 4117W        W46128  20.189   7.484   8.632
 4118W        W46129   4.409   5.844   1.328
 4119W        W46130  25.319  20.814   2.672
 4120W        W46131  22.979  14.594  11.142
 4121W        W46132  15.069   0.224   4.372
 4122W        W46133  24.969   6.234   9.402
 4123W        W46134  24.129   1.194   1.288
 4124W        W46135   5.489   7.454   8.812
 4125W        W46136  11.219   0.004   1.168
 4126W        W46137  16.639   3.514   2.108
 4127W        W46138  21.839  24.391   9.322
 4128W        W46139   1.699   2.364  14.652
 4129W        W46140  20.429  17.344   3.572
 4130W        W46141  15.259   1.624   0.958
 4131W        W46142   9.689  18.084   8.882
 4132W        W46143  12.639  18.434   8.852
 4133W        W46144  22.619  24.501   9.242
 4134W        W46145  13.519   9.644   1.918
 4135W        W46146  13.149  12.844   0.108
 4136W        W46147  18.469   9.744   8.742
 4137W        W46148   5.119  19.594   2.048
 4138W        W46149   1.299  25.191  11.252
 4139W        W46150   5.799  16.324   1.368
 4140W        W46151   2.249  23.301  11.862
 4141W        W46152  12.129  13.734   1.328
 4142W        W46153  12.569   7.324   8.482
 4143W        W46154  17.599  11.104   2.922
 4144W        W46155  24.999  11.704  11.282
 4145W        W46156  19.249   8.634   9.372
 4146W        W46157  21.339   0.084   9.602
 4147W        W46158   1.919  15.484   3.542
 4148W        W46159   9.519   7.584   3.842
 4149W        W46160   8.929  20.684   9.482
 4150W        W46161  21.509  14.304   0.538
 4151W        W46162  15.179  10.774  15.842
 4152W        W46163   0.109   5.614   1.868
 4153W        W46164  12.999   4.244   3.452
 4154W        W46165  13.229   1.714  15.582
 4155W        W46166  25.469   5.004  10.272
 4156W        W46167  21.059  18.534   1.768
 4157W        W46168  11.379  23.801  11.282
 4158W        W46169   1.969  10.394  11.342
 4159W        W46170   1.639  13.584  15.132
 4160W        W46171   5.259   5.734   3.142
 4161W        W46172   6.319   6.114   0.968
 4162W        W46173   6.779  16.774   0.578
 4163W        W46174   2.959  21.771   8.012
 4164W        W46175  15.619   1.724   0.008
 4165W        W46176   4.119  10.944  10.082
 4166W        W46177   1.259  16.224   0.898
 4167W        W46178  14.829  22.951   9.542
 4168W        W46179  12.249   3.104   3.322
 4169W        W46180   0.599   6.104   0.838
 4170W        W46181  16.839   8.814   9.592
 4171W        W46182   0.739  10.884   3.892
 4172W        W46183   5.279   1.024   8.262
 4173W        W46184  13.439  11.634  15.752
 4174W        W46185  24.559  17.134   1.368
 4175W        W46186   0.529  11.814   1.268
 4176W        W46187   8.049   0.744  10.302
 4177W        W46188  20.529   3.684  10.782
 4178W        W46189  20.889   5.834  11.112
 4179W        W46190   3.269  18.414   9.962
 4180W        W46191  20.639  24.891  11.232
 4181W        W46192  11.569   3.154   0.508
 4182W        W46193  22.549   2.634   8.602
 4183W        W46194  11.899   5.774  10.162
 4184W        W46195   9.469   2.914   3.482
 4185W        W46196  16.089   0.664   9.782
 4186W        W46197  23.879   2.864   8.292
 4187W        W46198  14.099  24.161   0.228
 4188W        W46199  11.759   8.564  15.522
 4189W        W46200  10.579   1.834  15.792
 4190W        W46201   4.319  17.394  15.152
 4191W        W46202  22.099   7.754  10.802
 4192W        W46203   8.479   1.174  14.952
 4193W        W46204  21.909   4.734   0.738
 4194W        W46205   7.869  19.284   8.652
 4195W        W46206  16.849   0.164   9.452
 4196W        W46207  23.639  21.761   2.622
 4197W        W46208  18.749  17.594   8.642
 4198W        W46209  16.369  13.384   9.752
 4199W        W46210   9.839   8.014   0.098
 4200W        W46211  25.339  18.504   1.668
 4201W        W46212  22.339  20.324   9.192
 4202W        W46213  11.819   9.524  14.802
 4203W        W46214   9.379   9.814  10.322
 4204W        W46215  14.039  23.851  10.822
 4205W        W46216   4.429  12.734  15.692
 4206W        W46217  24.759  25.481   9.222
 4207W        W46218  14.919  23.521   0.798
 4208W        W46219   2.569  20.944   8.182
 4209W        W46220   5.819   9.964   0.258
 4210W        W46221   6.089   4.914   8.032
 4211W        W46222  11.949  14.184   9.232
 4212W        W46223  24.079   4.664   9.092
 4213W        W46224  14.229   0.834   1.118
 4214W        W46225   4.059   2.484   8.102
 4215W        W46226  20.559  23.311   9.972
 4216W        W46227  24.439  21.961   8.952
 4217W        W46228  10.509  20.644   3.842
 4218W        W46229   6.609  20.894   8.982
 4219W        W46230  20.389  23.721   8.002
 4220W        W46231   9.479   8.904  15.022
 4221W        W46232  12.469  20.244   8.972
 4222W        W46233  10.579   8.444   3.362
 4223W        W46234   8.279   4.774   4.312
 4224W        W46235  18.759  18.154  10.642
 4225W        W46236   1.979  10.784   9.262
 4226W        W46237   0.649  25.321   1.378
 4227W        W46238   2.459  23.261   9.972
 4228W        W46239  12.739  18.564  10.972
 4229W        W46240  25.239   8.344   7.632
 4230W        W46241  11.039  12.614   5.362
 4231W        W46242   7.859   8.354   1.758
 4232W        W46243   8.959   5.694   9.182
 4233W        W46244  14.899   4.054  10.692
 4234W        W46245   3.169   4.784   0.808
 4235W        W46246  12.099   0.034   2.238
 4236W        W46247  13.819  23.971   3.052
 4237W        W46248  11.289  16.584   3.892
 4238W        W46249  20.079  16.614   9.012
 4239W        W46250   7.509   4.784   3.922
 4240W        W46251  10.169  23.101  10.562
 4241W        W46252  23.059   1.914   1.208
 4242W        W46253   3.889   8.664   2.008
 4243W        W46254   8.099  22.471   0.118
 4244W        W46255  25.209  11.894   1.858
 4245W        W46256   1.039  18.434   9.022
 4246W        W46257   1.829  16.264   2.822
 4247W        W46258   9.209  25.291   8.612
 4248W        W46259  25.049  23.141  12.202
 4249W        W46260  23.979  20.074   9.352
 4250W        W46261  19.709   2.094   9.202
 4251W        W46262  22.229   2.274  11.172
 4252W        W46263  18.289   4.074   3.472
 4253W        W46264   9.839  11.514  14.552
 4254W        W46265  25.589  18.694   0.968
 4255W        W46266   2.199   2.504  10.082
 4256W        W46267   4.539  17.024   9.652
 4257W        W46268   8.979  10.014   4.352
 4258W        W46269   3.029   6.014  11.622
 4259W        W46270  13.259  13.174   3.062
 4260W        W46271   1.809  10.724   8.532
 4261W        W46272  11.819  15.044  11.032
 4262W        W46273  12.969  16.924  15.132
 4263W        W46274  13.639   1.564   8.342
 4264W        W46275  23.139  10.384   8.132
 4265W        W46276  15.969  14.844  14.382
 4266W        W46277   2.779  12.614   2.418
 4267W        W46278  20.609   0.504   3.502
 4268W        W46279  20.869  18.294   2.458
 4269W        W46280  23.369  20.124   1.898
 4270W        W46281   8.339  16.534  10.822
 4271W        W46282  12.869   6.284   9.382
 4272W        W46283  21.079   7.044   9.462
 4273W        W46284  13.279   0.444   3.402
 4274W        W46285  23.539  14.884   9.472
 4275W        W46286   0.099   7.894   7.702
 4276W        W46287   3.279  15.714   1.838
 4277W        W46288  16.649   4.434   1.408
 4278W        W46289  14.019  25.541   4.702
 4279W        W46290  12.679  21.124   3.832
 4280W        W46291   4.789   2.974  10.002
 4281W        W46292   7.349  17.834   9.162
 4282W        W46293  19.279  25.171   3.032
 4283W        W46294  11.899  13.724   2.802
 4284W        W46295  16.069   6.434   0.548
 4285W        W46296  13.249  22.011   4.792
 4286W        W46297  13.709  13.364   3.282
 4287W        W46298   6.319   8.164   3.742
 4288W        W46299  19.589   9.564  11.702
 4289W        W46300   1.359   2.444   1.068
 4290W        W46301   0.001  14.634  12.462
 4291W        W46302  19.239  14.684   3.212
 4292W        W46303  21.869   8.254  10.452
 4293W        W46304  16.909   1.884   8.992
 4294W        W46305  11.229  10.914   2.098
 4295W        W46306  19.629  14.124   0.768
 4296W        W46307  11.949  10.444  15.142
 4297W        W46308   2.339  11.594   8.302
 4298W        W46309  14.969  17.684  15.422
 4299W        W46310  13.269   5.884  11.202
 4300W        W46311  15.719  15.904   0.598
 4301W        W46312  15.179  11.704   0.128
 4302W        W46313   8.959  22.741  10.512
 4303W        W46314  24.599  19.254   7.382
 4304W        W46315   6.629  10.944   4.042
 4305W        W46316   6.959  10.034   8.082
 4306W        W46317  19.209  25.411  10.622
 4307W        W46318   4.249  18.344   0.278
 4308W        W46319   5.669  19.024  15.452
 4309W        W46320  22.599   4.684  12.282
 4310W        W46321   2.559   2.214   7.692
 4311W        W46322  11.589  16.544   4.312
 4312W        W46323   5.039  21.511   1.178
 4313W        W46324  22.889   7.034  15.672
 4314W        W46325  13.119  23.701   9.332
 4315W        W46326   6.349   8.134  10.512
 4316W        W46327  13.889  19.734   2.622
 4317W        W46328   7.269  14.414   1.288
 4318W        W46329  14.429   2.514  10.712
 4319W        W46330  21.029  23.581   9.662
 4320W        W46331  19.769   1.034   8.722
 4321W        W46332  15.789  18.144   1.498
 4322W        W46333  20.209  21.711   9.452
 4323W        W46334  23.929   9.604   8.902
 4324W        W46335  11.989  18.024  10.912
 4325W        W46336  19.729   6.604   0.738
 4326W        W46337   2.339  16.414  11.262
 4327W        W46338  21.469   0.004   1.128
 4328W        W46339   6.729  14.674   1.258
 4329W        W46340  10.969  15.474  10.832
 4330W        W46341  21.089   4.174   0.588
 4331W        W46342   1.959   3.064   0.108
 4332W        W46343  18.839  10.564   0.888
 4333W        W46344  11.339   9.944  13.742
 4334W        W46345  10.359   7.204   2.912
 4335W        W46346   5.999   9.904   9.942
 4336W        W46347  14.029   2.764   2.268
 4337W        W46348   6.949  16.614  10.362
 4338W        W46349  11.199  14.224   1.148
 4339W        W46350   2.219   8.314   7.312
 4340W        W46351   0.639   4.064   2.882
 4341W        W46352  22.689  13.414   1.108
 4342W        W46353  12.709   5.214   1.748
 4343W        W46354   2.469   3.084   9.072
 4344W        W46355   5.899   5.524   2.428
 4345W        W46356   9.189  20.234   8.902
 4346W        W46357   5.359   7.674   1.528
 4347W        W46358   4.989   4.534   9.172
 4348W        W46359  16.369   9.534  15.052
 4349W        W46360  25.099   2.124   8.612
 4350W        W46361  16.369   9.554   3.332
 4351W        W46362  19.499  10.684  10.212
 4352W        W46363  23.879  15.684  10.452
 4353W        W46364   2.939  17.854   9.342
 4354W        W46365   5.899   0.834   8.722
 4355W        W46366   7.789   6.404   2.088
 4356W        W46367   2.049   4.344   1.518
 4357W        W46368  20.279   0.314   0.138
 4358W        W46369  10.739  14.734   8.722
 4359W        W46370  14.219  20.184   1.298
 4360W        W46371   5.909   4.314  14.532
 4361W        W46372  12.219  13.654   3.162
 4362W        W46373  17.029   0.474   2.498
 4363W        W46374   5.209   0.784   1.258
 4364W        W46375  18.199   2.704  11.112
 4365W        W46376  23.759   1.104   3.822
 4366W        W46377  12.429  22.051   9.062
 4367W        W46378  11.709  18.874   3.312
 4368W        W46379  21.199   1.094  11.322
 4369W        W46380   4.419  17.514   1.958
 4370W        W46381  17.339  23.581  10.062
 4371W        W46382   4.689  13.324   2.398
 4372W        W46383  10.019   2.414   0.078
 4373W        W46384  22.019  20.184   8.772
 4374W        W46385  24.399   4.144  15.742
 4375W        W46386   1.059   8.634   0.118
 4376W        W46387  22.199   2.684   0.698
 4377W        W46388   6.189  19.214   0.538
 4378W        W46389   4.699  13.114   1.948
 4379W        W46390  10.159   9.824  10.132
 4380W        W46391   8.659   5.824   1.588
 4381W        W46392   1.359   6.504   0.308
 4382W        W46393  15.539  22.311   2.178
 4383W        W46394  14.249  17.854   2.188
 4384W        W46395  12.829  13.424   9.722
 4385W        W46396  23.579  18.724   8.612
 4386W        W46397  17.339   8.364  10.572
 4387W        W46398   6.899  14.614  15.202
 4388W        W46399  10.659  13.834   2.812
 4389W        W46400  20.289   7.364   9.552
 4390W        W46401  21.459   0.564   7.852
 4391W        W46402   3.109  18.164   1.728
 4392W        W46403  16.899   8.434   1.068
 4393W        W46404  11.539  24.371  10.892
 4394W        W46405  17.169  15.714  15.532
 4395W        W46406   2.419   0.824   7.862
 4396W        W46407   6.679  22.771  10.642
 4397W        W46408  16.419  23.621   1.788
 4398W        W46409  10.049  19.934   4.502
 4399W        W46410   1.219   2.584   1.898
 4400W        W46411   4.799  22.631   2.642
 4401W        W46412   1.209  22.221   2.872
 4402W        W46413   5.589  14.544   9.812
 4403W        W46414  12.309   7.864   2.488
 4404W        W46415   6.659  22.771   3.192
 4405W        W46416  21.189  11.134   7.792
 4406W        W46417  13.649  18.384   9.232
 4407W        W46418  23.259  11.304   7.832
 4408W        W46419   1.869   0.664  10.982
 4409W        W46420  22.429  10.324  10.842
 4410W        W46421  14.149   1.474  10.522
 4411W        W46422  22.749  22.481   8.882
 4412W        W46423  22.129  11.404  10.342
 4413W        W46424   2.059  17.534   8.542
 4414W        W46425  10.209  14.414   8.932
 4415W        W46426  11.409  19.754   3.882
 4416W        W46427   4.789   3.534   3.002
 4417W        W46428  12.119  21.711   0.118
 4418W        W46429  24.269  12.174   0.288
 4419W        W46430   3.579  14.104   7.512
 4420W        W46431  22.219  15.514   8.412
 4421W        W46432   8.989  21.791   4.552
 4422W        W46433   9.219  19.544   1.778
 4423W        W46434  23.529  10.174  15.642
 4424W        W46435  11.989  25.351   2.692
 4425W        W46436   2.759  24.841  11.212
 4426W        W46437   0.959   8.484  15.492
 4427W        W46438  11.899  19.514   9.402
 4428W        W46439  20.659  23.201   3.192
 4429W        W46440   9.109   5.554   3.262
 4430W        W46441  25.519  14.884   1.578
 4431W        W46442   2.469   8.814   1.248
 4432W        W46443  21.629  12.504   8.472
 4433W        W46444  25.089  11.014   9.052
 4434W        W46445   1.049  17.924  10.812
 4435W        W46446   7.839   2.194   3.802
 4436W        W46447   5.559  12.974   1.638
 4437W        W46448  19.299  13.824   0.428
 4438W        W46449  18.409   7.024   3.612
 4439W        W46450  12.189  24.151   0.178
 4440W        W46451  16.579   3.144  11.582
 4441W        W46452  21.949  19.154  10.302
 4442W        W46453  11.769  11.334   1.418
 4443W        W46454  12.359  20.904  15.662
 4444W        W46455  19.319   7.504   8.932
 4445W        W46456   9.579  20.454  11.142
 4446W        W46457  18.259  22.451   2.602
 4447W        W46458  15.559  20.124   0.118
 4448W        W46459  20.759  10.224   0.708
 4449W        W46460  15.259  23.221   1.048
 4450W        W46461   1.429   2.244   1.608
 4451W        W46462  25.439   1.204  10.932
 4452W        W46463   5.699  22.931   2.178
 4453W        W46464  19.279   1.054   3.052
 4454W        W46465   2.069   8.854  10.522
 4455W        W46466  10.679   1.234   2.378
 4456W        W46467  17.249   9.834   3.382
 4457W        W46468   8.919  14.084   9.562
 4458W        W46469   5.929  25.391   3.942
 4459W        W46470  13.309  24.031   0.288
 4460W        W46471   3.879  15.804  10.202
 4461W        W46472   5.599   6.244   7.472
 4462W        W46473  25.449   1.324  15.142
 4463W        W46474   6.699   1.094   8.732
 4464W        W46475   4.489   2.344  14.622
 4465W        W46476  18.429  18.204   9.152
 4466W        W46477  16.589  10.524   9.282
 4467W        W46478   3.529  23.731   4.462
 4468W        W46479   7.369   7.954   0.368
 4469W        W46480  24.909  15.984   9.592
 4470W        W46481  23.379  18.674  12.042
 4471W        W46482  12.399  15.014   9.602
 4472W        W46483   7.859  13.174   9.952
 4473W        W46484   3.759  14.824   3.562
 4474W        W46485  14.429  11.974  10.642
 4475W        W46486  19.059  24.121  11.672
 4476W        W46487  18.839   7.454   0.878
 4477W        W46488  12.829   7.564   8.022
 4478W        W46489   1.059  20.874  11.882
 4479W        W46490   4.249   5.964   9.152
 4480W        W46491  19.799  11.404   8.752
 4481W        W46492   2.769  10.584   9.502
 4482W        W46493   7.369  17.994  15.742
 4483W        W46494  19.829  24.301   3.502
 4484W        W46495  23.549   6.894   8.962
 4485W        W46496  16.349   2.074   4.632
 4486W        W46497   4.889   4.674   7.492
 4487W        W46498  21.899   9.564   1.848
 4488W        W46499  20.179   1.854  11.372
 4489W        W46500   7.829   9.334  15.072
 4490W        W46501   1.029  25.221   8.142
 4491W        W46502  14.489  20.864   4.552
 4492W        W46503  25.579  23.671   8.112
 4493W        W46504  24.699  15.674   3.262
 4494W        W46505   6.799   0.474   1.318
 4495W        W46506  25.039   9.954  15.752
 4496W        W46507  23.359  10.404  11.152
 4497W        W46508   4.299   7.894   7.192
 4498W        W46509   7.339  25.001   9.222
 4499W        W46510   6.859  17.684  10.802
 4500W        W46511   8.509  19.194   2.802
 4501W        W46512  22.549  11.494  10.072
 4502W        W46513   6.959  15.534  15.632
 4503W        W46514  14.109   7.614   0.708
 4504W        W46515   3.999  14.404  10.552
 4505W        W46516  14.799  12.244  11.082
 4506W        W46517  24.929  15.664  11.472
 4507W        W46518  23.999  14.464   3.442
 4508W        W46519  17.379  12.444   3.102
 4509W        W46520   3.599  25.131  15.532
 4510W        W46521  15.769   6.044  15.592
 4511W        W46522   2.599  14.114   1.488
 4512W        W46523   2.739   3.394   3.342
 4513W        W46524   8.599  21.561  11.892
 4514W        W46525  14.389   2.264  15.142
 4515W        W46526  19.409  11.764  15.512
 4516W        W46527  25.099   9.614  11.542
 4517W        W46528   1.199  24.521  15.612
 4518W        W46529   0.539  25.431  10.012
 4519W        W46530   5.639  18.214   9.022
 4520W        W46531   9.419   1.684   1.438
 4521W        W46532   3.149   7.584   8.752
 4522W        W46533   6.099   5.654   1.398
 4523W        W46534   6.019  15.674   0.518
 4524W        W46535   2.549   8.264  10.162
 4525W        W46536   9.639  22.081   4.032
 4526W        W46537   6.189  16.784  11.242
 4527W        W46538   8.999   1.584   9.722
 4528W        W46539   2.089  13.664   3.052
 4529W        W46540  22.729   4.844   0.738
 4530W        W46541  11.469   4.204   2.318
 4531W        W46542  22.089  25.471   1.448
 4532W        W46543  22.099   1.504   1.478
 4533W        W46544  14.829  24.111   2.912
 4534W        W46545  23.119  10.144   2.882
 4535W        W46546   4.819  11.464   0.718
 4536W        W46547  11.209   5.934   2.752
 4537W        W46548   7.099  21.601  11.332
 4538W        W46549  22.379  18.964   2.612
 4539W        W46550  18.699  17.784   1.718
 4540W        W46551  10.979   3.774  14.952
 4541W        W46552  13.649  22.281   2.138
 4542W        W46553  17.919   5.954   2.398
 4543W        W46554   4.029  25.541   2.238
 4544W        W46555  20.609  14.594   7.952
 4545W        W46556   0.459   0.544   9.712
 4546W        W46557  24.119  20.574   8.422
 4547W        W46558   0.179  25.011   7.282
 4548W        W46559  14.559   4.704   8.842
 4549W        W46560  15.379   1.224   0.008
 4550W        W46561  15.759  13.254   8.582
 4551W        W46562   2.329   1.814   8.932
 4552W        W46563  22.499  23.171  10.222
 4553W        W46564  16.389   2.674  10.722
 4554W        W46565  19.859   9.364   8.252
 4555W        W46566  15.529  19.914   2.068
 4556W        W46567   0.829  14.564  10.062
 4557W        W46568  17.389  12.634   0.908
 4558W        W46569  23.229   8.464   8.752
 4559W        W46570  10.929  24.411   9.222
 4560W        W46571   8.419  19.174   3.282
 4561W        W46572   9.629  18.364  11.652
 4562W        W46573  21.069   9.334   4.552
 4563W        W46574  19.369  21.721   9.992
 4564W        W46575  11.429  12.894  10.532
 4565W        W46576  14.079  24.331   1.538
 4566W        W46577  13.569  24.911   0.408
 4567W        W46578   0.159  11.054   0.138
 4568W        W46579  12.769   9.014   1.938
 4569W        W46580   9.999  11.884   1.998
 4570W        W46581  17.119   6.504  15.382
 4571W        W46582   5.529   0.554   8.392
 4572W        W46583  12.379   9.164  15.552
 4573W        W46584   2.809  18.954  11.942
 4574W        W46585  19.609  22.941  11.062
 4575W        W46586   4.789   0.624  15.132
 4576W        W46587  23.799   4.994   2.862
 4577W        W46588   3.589   1.454   2.318
 4578W        W46589  13.739   6.044   9.412
 4579W        W46590  14.929  16.784   2.178
 4580W        W46591   4.179  19.594   8.192
 4581W        W46592  21.569   6.414   2.108
 4582W        W46593   9.549   7.214  10.182
 4583W        W46594  22.259  16.164   0.848
 4584W        W46595   8.389   5.124   0.538
 4585W        W46596  10.169  17.864  15.262
 4586W        W46597   5.059  19.004   2.912
 4587W        W46598   4.879  18.624   1.838
 4588W        W46599  19.989  19.744  11.072
 4589W        W46600   0.149   9.704  10.732
 4590W        W46601   5.489   1.994  15.662
 4591W        W46602   2.889   4.894   8.002
 4592W        W46603   1.919  14.684   3.222
 4593W        W46604  24.829   4.694   1.878
 4594W        W46605   0.089   5.064   3.632
 4595W        W46606   2.939  24.711   2.542
 4596W        W46607  15.539   8.964   1.868
 4597W        W46608   9.959   0.594  11.132
 4598W        W46609  15.219  24.381  15.552
 4599W        W46610  21.279  13.224   0.508
 4600W        W46611  10.399   7.204   0.368
 4601W        W46612   9.079   3.444  15.122
 4602W        W46613   5.139   0.514   2.128
 4603W        W46614   7.129  14.184  10.332
 4604W        W46615  14.659   7.444   3.642
 4605W        W46616  20.399  23.241   1.448
 4606W        W46617  19.039  11.374   7.702
 4607W        W46618  20.279  20.694   0.718
 4608W        W46619   3.069  11.964   1.658
 4609W        W46620   5.069   1.534   9.552
 4610W        W46621   6.169  23.971   2.962
 4611W        W46622   2.759  18.314  11.112
 4612W        W46623  17.189  16.234  10.422
 4613W        W46624  22.569   4.154  10.772
 4614W        W46625   3.439   8.874   1.668
 4615W        W46626  23.259  24.551   7.302
 4616W        W46627  23.129  18.014   7.372
 4617W        W46628  25.349   6.724  10.802
 4618W        W46629  21.979  11.614   8.642
 4619W        W46630   3.049  23.241   1.148
 4620W        W46631  13.729   1.774   9.582
 4621W        W46632   7.739  15.264  15.302
 4622W        W46633   2.159  22.201   1.468
 4623W        W46634   4.369  20.824   1.448
 4624W        W46635  10.549  22.881   9.422
 4625W        W46636  23.369   6.694   0.538
 4626W        W46637   1.279   1.054   0.248
 4627W        W46638   2.029  20.564   7.712
 4628W        W46639  16.519  12.934   0.898
 4629W        W46640   5.169  23.551   9.862
 4630W        W46641  22.879  11.224   9.142
 4631W        W46642  21.219   4.434   3.062
 4632W        W46643   2.449   8.244   2.258
 4633W        W46644  18.069   5.164   8.212
 4634W        W46645  23.229  13.594   9.152
 4635W        W46646  16.459  12.824   2.108
 4636W        W46647   8.599  15.774   3.432
 4637W        W46648  24.869   6.974   0.278
 4638W        W46649   1.279  11.444   0.948
 4639W        W46650   7.939  17.974   8.182
 4640W        W46651  24.629   2.514  15.142
 4641W        W46652   1.149   3.644   1.268
 4642W        W46653   1.299  12.664  11.492
 4643W        W46654  17.159   4.724   9.672
 4644W        W46655   9.289   1.234   0.478
 4645W        W46656  20.739   2.514   8.022
 4646W        W46657   9.579   5.814   8.912
 4647W        W46658  14.749  16.144   0.338
 4648W        W46659  18.659  11.044   0.028
 4649W        W46660   8.009  20.854   9.152
 4650W        W46661   0.159  13.174  10.002
 4651W        W46662   2.219  12.314  10.922
 4652W        W46663  14.979  12.514   1.948
 4653W        W46664   4.519   1.184   8.902
 4654W        W46665  17.779  13.234  10.042
 4655W        W46666   6.899  21.224   1.948
 4656W        W46667  19.729   0.544   1.788
 4657W        W46668  22.869  14.234   1.578
 4658W        W46669  10.219  19.864  15.722
 4659W        W46670   2.949  20.004   9.472
 4660W        W46671  10.919  11.934   2.912
 4661W        W46672  21.259   5.564   9.942
 4662W        W46673   8.879  13.224   2.058
 4663W        W46674  14.649  22.761   7.642
 4664W        W46675   4.489  10.804   7.302
 4665W        W46676  18.679  15.784   0.668
 4666W        W46677   7.439   1.414   2.438
 4667W        W46678   9.189  17.834   0.158
 4668W        W46679  20.659  15.114   7.932
 4669W        W46680  16.919  19.174   1.718
 4670W        W46681   3.069  21.881   7.162
 4671W        W46682  17.629   6.524   3.312
 4672W        W46683  22.529   5.594  15.812
 4673W        W46684  11.619  16.864   9.532
 4674W        W46685  22.359   7.744   8.442
 4675W        W46686   4.469  17.834   4.142
 4676W        W46687  14.169   1.774   0.098
 4677W        W46688   9.839   1.644   3.582
 4678W        W46689  10.689  15.734   4.382
 4679W        W46690   7.289   2.264   1.788
 4680W        W46691   1.529   8.094   7.432
 4681W        W46692  16.939  17.354   3.842
 4682W        W46693  16.529  19.714   2.018
 4683W        W46694  14.269   1.424   2.478
 4684W        W46695  12.369  16.754   1.118
 4685W        W46696   2.739   9.604   8.742
 4686W        W46697  12.379  24.501   1.808
 4687W        W46698  23.829  24.861   0.358
 4688W        W46699   3.239  24.391   0.278
 4689W        W46700   4.649  11.954   7.972
 4690W        W46701  12.539   9.034   4.412
 4691W        W46702   4.689  18.184   9.062
 4692W        W46703   8.079  25.261   4.122
 4693W        W46704   9.219  19.184  10.832
 4694W        W46705   4.479   1.834  10.342
 4695W        W46706  18.389   3.164   0.118
 4696W        W46707  18.649  16.614   2.178
 4697W        W46708   9.719   2.784   4.322
 4698W        W46709  24.239  18.464   8.002
 4699W        W46710  10.469   0.084   3.162
 4700W        W46711  20.379  14.254   8.872
 4701W        W46712  20.109  16.764   7.022
 4702W        W46713   2.259   7.574  11.492
 4703W        W46714   7.149  22.541   0.128
 4704W        W46715  13.699  25.451   0.808
 4705W        W46716  24.979  10.624  10.092
 4706W        W46717   5.689   3.924   2.118
 4707W        W46718  20.359  14.004   2.318
 4708W        W46719   2.199  13.194  10.452
 4709W        W46720   8.319  15.904   3.872
 4710W        W46721   1.959  21.541   0.198
 4711W        W46722  12.859   5.134  10.662
 4712W        W46723  23.309  14.004   9.862
 4713W        W46724  24.979  11.784   2.348
 4714W        W46725  10.819  18.394   0.968
 4715W        W46726   4.329  11.474   1.048
 4716W        W46727  24.449  13.154   0.828
 4717W        W46728  16.519  20.504   2.498
 4718W        W46729   0.649  15.644   8.052
 4719W        W46730  17.349   5.174   9.232
 4720W        W46731  10.989  19.244   9.342
 4721W        W46732  13.849  21.451  12.062
 4722W        W46733  20.169  20.854  11.852
 4723W        W46734  17.469  22.681  11.542
 4724W        W46735  20.349   4.364   1.168
 4725W        W46736  12.069   4.244  14.462
 4726W        W46737   1.729  25.201   9.332
 4727W        W46738  12.819   2.274   0.138
 4728W        W46739  10.779   5.134   8.802
 4729W        W46740   3.219  13.654   7.782
 4730W        W46741  16.609  15.274   7.832
 4731W        W46742   9.039  20.684   1.058
 4732W        W46743  14.789  10.084   3.532
 4733W        W46744  22.959  21.981   0.828
 4734W        W46745  25.189   6.964   0.668
 4735W        W46746  10.599  22.541   8.642
 4736W        W46747  18.919   0.424   0.968
 4737W        W46748   0.259   1.684   8.052
 4738W        W46749   0.579   3.294   8.202
 4739W        W46750  15.109   7.764   2.398
 4740W        W46751  19.099  15.924  11.612
 4741W        W46752   9.959   4.224   9.162
 4742W        W46753   5.829  22.421  15.312
 4743W        W46754  22.819   9.574  10.752
 4744W        W46755  15.879   3.304   0.468
 4745W        W46756  19.109  14.084   9.772
 4746W        W46757   6.769  13.174   8.282
 4747W        W46758  16.849  21.411   2.328
 4748W        W46759   3.339  17.584   8.492
 4749W        W46760   4.619  19.904  11.072
 4750W        W46761  16.959  15.564   9.092
 4751W        W46762   7.139  20.734   3.932
 4752W        W46763  14.059  23.671   9.382
 4753W        W46764  14.799  17.284   2.198
 4754W        W46765  24.309   4.604   7.122
 4755W        W46766   2.849  22.481   0.848
 4756W        W46767   9.519   4.124   9.432
 4757W        W46768   4.659  16.224   9.102
 4758W        W46769   1.069   7.894   0.398
 4759W        W46770   9.299  16.074   4.402
 4760W        W46771   1.189   5.534   6.252
 4761W        W46772  16.809  15.094   8.982
 4762W        W46773  19.089  15.974  10.062
 4763W        W46774   2.299  12.754   3.002
 4764W        W46775  17.879   3.214   0.228
 4765W        W46776   2.429  12.024  11.352
 4766W        W46777  22.439  14.024   8.802
 4767W        W46778  24.159   3.324   9.092
 4768W        W46779  16.149  15.314  10.302
 4769W        W46780  17.009   2.994   2.792
 4770W        W46781  16.429  17.154  10.582
 4771W        W46782  19.129  17.354   2.782
 4772W        W46783   0.129  10.654   8.692
 4773W        W46784  24.229  24.311  10.492
 4774W        W46785  19.519  17.724   2.722
 4775W        W46786   3.349  24.971   0.478
 4776W        W46787  18.239  14.924   3.742
 4777W        W46788  23.469   2.514  10.742
 4778W        W46789   4.449  23.291   4.132
 4779W        W46790   2.719   5.034  14.932
 4780W        W46791  14.089  14.484   9.462
 4781W        W46792   0.829  18.264  10.362
 4782W        W46793   6.289   5.524  15.382
 4783W        W46794  13.419   8.114  15.782
 4784W        W46795  21.619   5.444   8.592
 4785W        W46796  23.529   7.704   9.482
 4786W        W46797  25.079   3.384   1.308
 4787W        W46798   4.399  23.181   0.398
 4788W        W46799  10.289   3.354   2.398
 4789W        W46800  16.529   9.724   2.368
 4790W        W46801   6.349  18.424   3.252
 4791W        W46802  13.049   5.054   8.602
 4792W        W46803  22.619   4.064   3.122
 4793W        W46804   6.399  10.514   0.728
 4794W        W46805   0.049  20.124   0.568
 4795W        W46806   9.649  19.844   1.958
 4796W        W46807  11.009  15.494   3.962
 4797W        W46808  25.049  13.804   2.652
 4798W        W46809   8.109   0.824   1.908
 4799W        W46810   4.379   2.074   9.922
 4800W        W46811  16.179  20.804  12.162
 4801W        W46812   4.569   3.754   7.942
 4802W        W46813  17.749   7.054   8.442
 4803W        W46814  15.209  21.264   2.228
 4804W        W46815  15.379   6.234   3.802
 4805W        W46816  16.109  22.611   3.172
 4806W        W46817   5.509   6.024   0.258
 4807W        W46818   6.049  20.434  10.272
 4808W        W46819   0.269  15.234   2.542
 4809W        W46820   7.589   4.734  15.332
 4810W        W46821  22.989   0.034  11.092
 4811W        W46822  20.199  21.521   7.322
 4812W        W46823   4.749  25.301   2.348
 4813W        W46824  12.529   9.524   1.398
 4814W        W46825   9.419   8.834   0.998
 4815W        W46826   7.239  17.434   2.108
 4816W        W46827  25.469   8.434   9.312
 4817W        W46828   8.729   1.684   8.102
 4818W        W46829   2.729  23.371   2.742
 4819W        W46830  13.589  13.504   2.782
 4820W        W46831  10.969   9.104   1.558
 4821W        W46832   2.539  16.134  15.342
 4822W        W46833  21.409  22.621  10.752
 4823W        W46834   4.089   4.874   1.138
 4824W        W46835  11.069  20.524  11.052
 4825W        W46836  20.649  25.171   0.608
 4826W        W46837   4.439  17.294   1.208
 4827W        W46838  18.149  20.714   9.632
 4828W        W46839  13.949   9.784   1.718
 4829W        W46840  16.489   0.234   3.382
 4830W        W46841   4.119  15.454   8.162
 4831W        W46842   3.729   6.954   2.552
 4832W        W46843   4.889   4.144   4.082
 4833W        W46844  20.659   9.944  10.812
 4834W        W46845  19.679  25.051  10.412
 4835W        W46846  25.189  16.274   2.168
 4836W        W46847  23.819  20.514   0.788
 4837W        W46848   0.249  20.604   8.952
 4838W        W46849   4.249  23.641   9.952
 4839W        W46850  20.629   6.934  10.432
 4840W        W46851   4.669  23.001   2.278
 4841W        W46852  19.769  13.664   2.622
 4842W        W46853   1.809  14.434   7.032
 4843W        W46854  22.349  11.584   8.142
 4844W        W46855  24.159  10.664   1.398
 4845W        W46856  12.619  23.581   3.242
 4846W        W46857  25.189   7.104  15.782
 4847W        W46858  11.399  21.671   4.332
 4848W        W46859   5.069  10.244  11.082
 4849W        W46860   8.759  20.244   3.582
 4850W        W46861  15.349  19.584   3.052
 4851W        W46862   4.189  22.541   0.878
 4852W        W46863  18.709  25.351   1.188
 4853W        W46864  12.209  11.744   2.922
 4854W        W46865   0.919  18.534  10.792
 4855W        W46866   8.979   4.074   0.718
 4856W        W46867   3.069  21.991   1.058
 4857W        W46868   6.509  13.384   1.308
 4858W        W46869   0.669   8.454   7.252
 4859W        W46870  24.999  13.664   7.692
 4860W        W46871  19.249   0.924   9.182
 4861W        W46872  22.209   2.274   0.288
 4862W        W46873  19.769  18.624   3.762
 4863W        W46874   2.839   3.494   9.152
 4864W        W46875   9.439   4.554   4.252
 4865W        W46876   9.379   9.294  10.062
 4866W        W46877   1.779   5.354   0.328
 4867W        W46878  21.059  17.204  10.612
 4868W        W46879  22.339  23.191   0.358
 4869W        W46880   7.169  13.854   0.078
 4870W        W46881   7.249  18.734   2.238
 4871W        W46882  22.939  23.171   9.882
 4872W        W46883   6.679  16.834   4.602
 4873W        W46884   3.019   3.584   8.582
 4874W        W46885  12.099  16.464   1.418
 4875W        W46886   8.619   2.344   2.168
 4876W        W46887  22.179  14.404   2.328
 4877W        W46888   9.109  14.704   2.962
 4878W        W46889   3.609   6.644   7.712
 4879W        W46890   2.839  20.854   9.652
 4880W        W46891  10.989  22.571  15.142
 4881W        W46892   0.429  23.121  15.602
 4882W        W46893   6.099  19.554   1.998
 4883W        W46894   4.119  19.704  10.332
 4884W        W46895   3.009   6.134  10.492
 4885W        W46896   8.219   9.314   0.138
 4886W        W46897   1.289   8.744  15.112
 4887W        W46898   3.479  14.204  15.782
 4888W        W46899   4.919   0.734  10.182
 4889W        W46900  21.089  12.484   2.922
 4890W        W46901  18.039  13.444   3.612
 4891W        W46902   5.769   1.794   8.952
 4892W        W46903   5.299  22.791   1.808
 4893W        W46904  22.219  24.301   2.682
 4894W        W46905  19.739  16.154   7.892
 4895W        W46906  17.149  11.684   3.212
 4896W        W46907   8.539  11.664   3.552
 4897W        W46908  18.849   8.144  15.342
 4898W        W46909  13.379  12.654  15.032
 4899W        W46910  20.449   0.344   1.318
 4900W        W46911   6.719   5.114   7.432
 4901W        W46912   5.289  12.314   8.262
 4902W        W46913   0.359   7.324   0.018
 4903W        W46914   8.219   4.084   9.242
 4904W        W46915  12.609   9.974   1.588
 4905W        W46916  23.549  25.441   3.042
 4906W        W46917   7.699   6.614  10.352
 4907W        W46918  18.659  19.624   0.658
 4908W        W46919  23.029   4.674  11.422
 4909W        W46920  16.209  20.984   1.428
 4910W        W46921   0.639  13.354   8.732
 4911W        W46922  13.809  18.844   4.012
 4912W        W46923   6.909  12.504   0.168
 4913W        W46924  20.959   9.444   2.942
 4914W        W46925  18.599  21.921  12.172
 4915W        W46926  22.529  19.184  11.732
 4916W        W46927  21.389  14.554   8.432
 4917W        W46928  13.679  25.441   2.248
 4918W        W46929   4.599  12.764   9.902
 4919W        W46930  21.379  12.094   2.702
 4920W        W46931   1.129   0.264   0.528
 4921W        W46932  24.979   9.034   2.288
 4922W        W46933   8.929   5.864   9.712
 4923W        W46934  14.109   0.024   2.088
 4924W        W46935  22.489  21.074   3.042
 4925W        W46936  12.879  13.764  10.082
 4926W        W46937   4.169  15.494   0.218
 4927W        W46938   6.759   5.824   1.148
 4928W        W46939  23.969   1.574   2.562
 4929W        W46940   8.899   5.094   2.168
 4930W        W46941  22.019   3.854  11.622
 4931W        W46942  18.519   6.484   0.728
 4932W        W46943   8.169  16.004   9.892
 4933W        W46944  11.429   6.394   8.622
 4934W        W46945  13.419   1.034   2.038
 4935W        W46946  15.019   4.144  15.612
 4936W        W46947   7.409  22.061  11.402
 4937W        W46948  16.829  15.844   3.462
 4938W        W46949   2.299   7.584   6.882
 4939W        W46950  16.399   1.514  11.912
 4940W        W46951  14.749  24.691   8.992
 4941W        W46952  22.429  16.354   8.352
 4942W        W46953   0.659  11.094   0.408
 4943W        W46954  13.349  20.484   8.162
 4944W        W46955   8.849   2.024   3.532
 4945W        W46956   4.929  15.274   2.772
 4946W        W46957  13.829  11.094   2.428
 4947W        W46958   7.649  16.024   1.828
 4948W        W46959   8.189   7.454   8.962
 4949W        W46960   4.129  15.284   8.962
 4950W        W46961   8.189  24.611   0.888
 4951W        W46962  13.649  24.111   9.972
 4952W        W46963  17.619  25.501  11.362
 4953W        W46964  10.609  23.021  15.802
 4954W        W46965   5.559   3.554   1.378
 4955W        W46966   3.259  13.194   8.382
 4956W        W46967  14.169  24.271   7.842
 4957W        W46968  10.369   6.014   2.872
 4958W        W46969   8.139   7.564   7.512
 4959W        W46970   0.669   9.574   9.232
 4960W        W46971   0.859   4.954   0.028
 4961W        W46972  17.369   7.804   3.262
 4962W        W46973   6.999   6.774   9.242
 4963W        W46974  11.709   4.654   4.012
 4964W        W46975   7.649   4.814   0.428
 4965W        W46976  15.459   5.544   9.002
 4966W        W46977  10.829  16.524   4.002
 4967W        W46978   8.099   9.784   9.942
 4968W        W46979   2.689  21.601   3.352
 4969W        W46980   8.549   3.344   2.028
 4970W        W46981  13.889  18.274   8.322
 4971W        W46982  12.899  20.004   3.872
 4972W        W46983  19.869  16.984   1.798
 4973W        W46984  24.609   1.234  11.432
 4974W        W46985  19.759  22.571   3.032
 4975W        W46986   1.269  11.744   0.588
 4976W        W46987  12.199   6.174  10.212
 4977W        W46988   0.659  15.514   1.558
 4978W        W46989  11.219  10.054   5.012
 4979W        W46990  13.779   8.374   2.228
 4980W        W46991   5.839   9.634   0.708
 4981W        W46992  19.109  20.534   8.512
 4982W        W46993   0.089  24.901   0.898
 4983W        W46994   4.589  19.634   8.482
 4984W        W46995  24.139  17.944   0.058
 4985W        W46996   5.069  19.494   8.332
 4986W        W46997  10.109  23.651   9.562
 4987W        W46998  19.429  14.534   8.792
 4988W        W46999  15.139  13.934   3.232
 4989W        W47000   8.479   6.004  15.802
 4990W        W47001  17.909  16.684  10.232
 4991W        W47002   0.499  15.764   8.632
 4992W        W47003   6.359   8.614   1.028
 4993W        W47004  22.519  25.201   3.482
 4994W        W47005   5.139  10.764   8.112
 4995W        W47006  19.519   6.804   2.328
 4996W        W47007  19.889   2.794   1.938
 4997W        W47008  12.629   6.064  15.572
 4998W        W47009  23.099  25.001   8.022
 4999W        W47010   2.059   0.254  11.102
 5000W        W47011  16.549  25.411   2.098
 5001W        W47012  19.369  12.884   0.818
 5002W        W47013   5.719  17.444   0.538
 5003W        W47014  16.429  19.144  10.282
 5004W        W47015  11.839  25.111   1.668
 5005W        W47016  24.379   2.404  10.552
 5006W        W47017  15.949  15.964   1.448
 5007W        W47018  23.399  16.174  11.942
 5008W        W47019  15.369   3.284   1.938
 5009W        W47020   7.319  15.704  11.372
 5010W        W47021   8.209   6.554  10.192
 5011W        W47022   1.899  19.194   1.978
 5012W        W47023   4.629   9.964   1.458
 5013W        W47024  11.319   3.724   3.382
 5014W        W47025   4.679  24.251   0.748
 5015W        W47026  11.139  21.671  15.252
 5016W        W47027  17.869  10.954   8.832
 5017W        W47028   4.419   5.494   8.962
 5018W        W47029  12.609   1.844   2.018
 5019W        W47030  17.919  11.494  15.292
 5020W        W47031  19.929  15.664   3.972
 5021W        W47032  23.879  10.384   9.652
 5022W        W47033  20.219   2.664   7.222
 5023W        W47034   6.459  11.814   0.598
 5024W        W47035   2.919  10.604   1.748
 5025W        W47036  16.819   4.034   3.552
 5026W        W47037   8.159   4.654   3.292
 5027W        W47038   0.629   0.664   2.298
 5028W        W47039   0.021   9.444   2.158
 5029W        W47040  20.169  16.364   2.038
 5030W        W47041  15.239  18.604   9.902
 5031W        W47042  14.249   2.154  15.672
 5032W        W47043   7.109   3.214   1.688
 5033W        W47044   6.289  22.731   2.842
 5034W        W47045  13.189  10.094   1.658
 5035W        W47046   2.379  15.954   9.712
 5036W        W47047  24.349  23.711   7.552
 5037W        W47048   6.039   1.524   1.728
 5038W        W47049   7.759   8.584  10.562
 5039W        W47050   0.929  10.524   3.052
 5040W        W47051  23.459  24.891   6.952
 5041W        W47052  17.759   4.324   9.702
 5042W        W47053   0.789  23.361   1.218
 5043W        W47054  15.059   8.174   0.638
 5044W        W47055  13.259  20.304   2.398
 5045W        W47056  16.819   0.494  10.872
 5046W        W47057   5.409  18.334   2.458
 5047W        W47058   9.139  19.104   9.852
 5048W        W47059  20.649   0.064   7.442
 5049W        W47060   4.399  13.984   0.618
 5050W        W47061  22.639  20.264   7.742
 5051W        W47062  20.889   3.324   9.562
 5052W        W47063  10.579  14.854   4.632
 5053W        W47064   0.459  16.544  10.122
 5054W        W47065  23.639  18.504   2.842
 5055W        W47066   1.879  24.481  15.402
 5056W        W47067  25.419   4.414  10.122
 5057W        W47068  21.449   3.594   9.092
 5058W        W47069   3.089   5.934   1.538
 5059W        W47070   5.189   6.474  10.172
 5060W        W47071   0.839   8.924   9.902
 5061W        W47072  18.699   5.924   0.178
 5062W        W47073  17.989   7.114  10.402
 5063W        W47074  10.549  23.881  11.092
 5064W        W47075  18.289   8.864  10.602
 5065W        W47076   0.109   0.234   0.738
 5066W        W47077  21.709  21.234  10.562
 5067W        W47078  23.299  17.384   3.962
 5068W        W47079   0.789  14.054   9.122
 5069W        W47080   6.759   3.714   0.718
 5070W        W47081  20.319  12.004   0.698
 5071W        W47082   3.889   4.074   9.662
 5072W        W47083  20.709  11.154   9.542
 5073W        W47084  14.669   1.784   0.338
 5074W        W47085  13.819  14.734   2.992
 5075W        W47086  14.619  18.784   1.098
 5076W        W47087  15.449  11.704   1.328
 5077W        W47088   8.299   7.594   3.012
 5078W        W47089   4.519  20.414   9.252
 5079W        W47090  16.099   9.684   0.548
 5080W        W47091   1.069  18.244   1.698
 5081W        W47092   2.119   8.594   2.088
 5082W        W47093  17.559  20.744  11.252
 5083W        W47094   1.739   1.464   9.382
 5084W        W47095  10.489  25.361   0.528
 5085W        W47096   9.269  15.444   1.498
 5086W        W47097   8.949   2.324   1.828
 5087W        W47098  21.429  19.184   0.498
 5088W        W47099   2.219  12.284   7.952
 5089W        W47100  12.209  16.964  14.952
 5090W        W47101  21.169   0.524  10.472
 5091W        W47102  24.789   0.864   0.338
 5092W        W47103  12.739   1.804  15.612
 5093W        W47104  20.279  12.734   1.988
 5094W        W47105  20.909   9.354   2.418
 5095W        W47106   7.789  15.204   9.562
 5096W        W47107   4.699  21.941   2.028
 5097W        W47108  11.869  13.574   9.382
 5098W        W47109   5.709   2.044   4.292
 5099W        W47110   2.879   6.844   7.882
 5100W        W47111  25.229  25.591  11.612
 5101W        W47112  16.869  14.844   2.498
 5102W        W47113   0.599  21.521   8.292
 5103W        W47114   7.189   9.984  10.772
 5104W        W47115  15.229   6.114   0.578
 5105W        W47116  18.109   9.224   8.242
 5106W        W47117  19.029   1.334  11.182
 5107W        W47118  12.179  17.724   3.272
 5108W        W47119  21.189  20.294   1.788
 5109W        W47120  11.659  19.524  10.602
 5110W        W47121  17.999  12.384   0.478
 5111W        W47122   3.029  16.734  11.912
 5112W        W47123   2.949  20.624   8.082
 5113W        W47124   4.239  13.564   1.398
 5114W        W47125  24.449  18.974  10.782
 5115W        W47126  14.029  13.864   2.448
 5116W        W47127  11.699  19.374   1.968
 5117W        W47128   2.739  20.814   0.998
 5118W        W47129  22.839  21.481   7.602
 5119W        W47130   4.849   2.174   2.078
 5120W        W47131  17.669  12.654   1.278
 5121W        W47132   8.289   5.054  14.542
 5122W        W47133   4.039   4.674   8.792
 5123W        W47134  21.509   6.904   1.898
 5124W        W47135  17.669   0.854   0.728
 5125W        W47136   2.069   7.604  10.982
 5126W        W47137  15.249   9.934   2.208
 5127W        W47138   9.329  11.684   1.388
 5128W        W47139  19.259   8.394  15.572
 5129W        W47140  19.049  13.024   1.218
 5130W        W47141   5.879   3.494  11.072
 5131W        W47142  10.929  25.531  14.672
 5132W        W47143  11.679  14.864  14.072
 5133W        W47144   1.569  11.664   8.272
 5134W        W47145   3.369  18.534   8.752
 5135W        W47146  21.109  10.634   3.522
 5136W        W47147  12.259  13.204   0.678
 5137W        W47148   4.079  20.684   2.178
 5138W        W47149   1.649  14.954   0.478
 5139W        W47150   3.849   0.974   0.258
 5140W        W47151  14.639  19.794  15.622
 5141W        W47152  21.999  14.154   7.972
 5142W        W47153   9.759   2.564   3.252
 5143W        W47154  18.899   4.684   1.308
 5144W        W47155  17.759  15.084   9.502
 5145W        W47156  14.019  17.034   1.818
 5146W        W47157  10.629  23.251   2.418
 5147W        W47158  15.739  24.691   0.118
 5148W        W47159  10.729  12.784  10.052
 5149W        W47160  10.639   2.974   0.598
 5150W        W47161  23.469   1.984  10.762
 5151W        W47162   5.299  11.204   9.512
 5152W        W47163  25.539   6.544   0.698
 5153W        W47164  13.309  24.191   1.218
 5154W        W47165   4.969  17.054  15.742
 5155W        W47166  13.629  20.364   0.578
 5156W        W47167   0.399  19.764   1.628
 5157W        W47168   5.299  13.174   8.902
 5158W        W47169   1.319   6.664   1.018
 5159W        W47170   2.289   5.064  10.752
 5160W        W47171  14.519  19.424  10.842
 5161W        W47172  22.269  13.644   8.522
 5162W        W47173   6.529  18.384   0.048
 5163W        W47174  14.879   3.764   3.382
 5164W        W47175  13.189   0.184   9.322
 5165W        W47176  19.489  22.681   2.308
 5166W        W47177   7.299   4.904   9.622
 5167W        W47178   2.029   3.874   2.742
 5168W        W47179   8.559  15.074   0.158
 5169W        W47180   4.489   4.884   7.292
 5170W        W47181  22.099   7.644   2.128
 5171W        W47182  12.569   5.154   9.352
 5172W        W47183   3.149  18.624  10.622
 5173W        W47184  17.699   4.594   2.912
 5174W        W47185  18.609  13.334   9.512
 5175W        W47186   1.159  20.694   9.462
 5176W        W47187   4.169   2.804   2.228
 5177W        W47188  15.969   2.774   0.738
 5178W        W47189  21.439   6.004   0.398
 5179W        W47190   5.739   6.714  14.842
 5180W        W47191   6.269   6.714   0.218
 5181W        W47192   6.889  10.334   2.922
 5182W        W47193   0.459   8.314  15.562
 5183W        W47194  22.719  23.721   3.302
 5184W        W47195   0.139   0.464   2.522
 5185W        W47196   9.179   9.704  15.732
 5186W        W47197  12.139  10.824  10.152
 5187W        W47198  25.529   4.784   1.888
 5188W        W47199   0.269  25.031  11.362
 5189W        W47200   7.689  24.931  15.402
 5190W        W47201  23.209  24.061   8.872
 5191W        W47202   7.409  13.564   0.508
 5192W        W47203  21.869  10.094   9.222
 5193W        W47204   4.119   6.054   1.668
 5194W        W47205  13.709   0.864   1.098
 5195W        W47206  13.539   4.264   9.112
 5196W        W47207  14.259   6.674   1.298
 5197W        W47208  19.229   2.604   7.922
 5198W        W47209  17.939  18.904   1.558
 5199W        W47210   6.699  23.111   9.722
 5200W        W47211  17.559   1.984   8.412
 5201W        W47212  11.549  23.201   9.462
 5202W        W47213  10.719  13.664  10.912
 5203W        W47214  21.499   3.194   1.268
 5204W        W47215   7.569   2.274   8.052
 5205W        W47216  14.259   2.214  11.132
 5206W        W47217   1.569   3.564   1.018
 5207W        W47218  18.179   0.614   1.438
 5208W        W47219  19.199  23.641   7.042
 5209W        W47220   5.279  20.154  10.452
 5210W        W47221  10.279   8.454   9.782
 5211W        W47222  18.589   1.214   3.192
 5212W        W47223  15.049  17.014   3.972
 5213W        W47224   1.079  10.044  10.972
 5214W        W47225  20.299  19.304   0.148
 5215W        W47226   7.249  17.334   8.902
 5216W        W47227  23.999  24.341  10.962
 5217W        W47228  17.849   2.994   1.108
 5218W        W47229   3.579   5.184   1.588
 5219W        W47230   4.029   8.964   1.198
 5220W        W47231  18.199  15.514  11.122
 5221W        W47232  25.369  12.264   2.178
 5222W        W47233   0.689  11.664  10.762
 5223W        W47234  11.079  23.461   2.632
 5224W        W47235  11.509  20.634   3.682
 5225W        W47236  18.919  25.201   3.852
 5226W        W47237   2.669   9.024  10.682
 5227W        W47238   9.049  17.514   2.438
 5228W        W47239   4.699   2.444   1.238
 5229W        W47240   8.859  10.254   3.802
 5230W        W47241  19.059   8.774   2.532
 5231W        W47242   8.779   1.874   2.078
 5232W        W47243  15.159   9.284   2.218
 5233W        W47244   2.299  19.844   0.118
 5234W        W47245   6.689  24.281   3.932
 5235W        W47246   5.629  15.584   9.202
 5236W        W47247   0.059  18.114   9.872
 5237W        W47248  11.019  17.044   3.912
 5238W        W47249  21.799   5.494   3.892
 5239W        W47250  21.789   0.984   7.772
 5240W        W47251  22.319  20.904  12.592
 5241W        W47252   1.769   2.804   9.902
 5242W        W47253  13.819   3.254   0.048
 5243W        W47254  22.179   5.204   2.408
 5244W        W47255  13.499   6.254   0.088
 5245W        W47256  16.299  22.471   2.742
 5246W        W47257  18.579  21.084   9.682
 5247W        W47258  19.309  19.184   9.382
 5248W        W47259  24.129  23.241   8.522
 5249W        W47260  20.989  23.551  10.722
 5250W        W47261  19.089   9.134  10.962
 5251W        W47262  19.179  12.044   0.918
 5252W        W47263   4.779   6.664   6.962
 5253W        W47264  19.139   7.884   1.098
 5254W        W47265   9.119  18.794   7.962
 5255W        W47266   8.299   2.804   0.268
 5256W        W47267  18.269  11.194   4.252
 5257W        W47268   1.249  11.044   9.402
 5258W        W47269  10.649  19.154   1.458
 5259W        W47270  21.299  16.034   4.092
 5260W        W47271  24.039  14.534  10.132
 5261W        W47272  11.949  16.744   2.078
 5262W        W47273  15.439  17.454   9.882
 5263W        W47274   9.249  18.824   9.422
 5264W        W47275  24.009   7.224   2.078
 5265W        W47276   2.439  13.334   8.182
 5266W        W47277  21.379  13.854   8.972
 5267W        W47278   0.299  14.564   1.778
 5268W        W47279  14.459  16.774   1.068
 5269W        W47280   4.849  10.004  10.082
 5270W        W47281  24.809  20.404   1.018
 5271W        W47282   4.359  12.544  15.212
 5272W        W47283  10.429   5.494   0.528
 5273W        W47284  11.769  24.891   9.732
 5274W        W47285   4.339   9.604   7.732
 5275W        W47286   3.289   5.874   9.942
 5276W        W47287   0.999  19.694   0.108
 5277W        W47288  12.859   7.364   1.948
 5278W        W47289   4.539  11.424   9.272
 5279W        W47290  25.379  16.004   1.818
 5280W        W47291  18.759  15.804   2.632
 5281W        W47292  21.559  24.351   2.822
 5282W        W47293   1.639   6.294   2.992
 5283W        W47294   6.149  19.684   9.452
 5284W        W47295  25.299  12.334   0.398
 5285W        W47296  20.339   5.634   9.642
 5286W        W47297  10.869  16.234  10.492
 5287W        W47298  10.609  14.884   0.788
 5288W        W47299  18.119   2.744   8.902
 5289W        W47300   8.669   6.504   8.112
 5290W        W47301  23.969  24.251  10.102
 5291W        W47302  19.739  23.991   1.508
 5292W        W47303   3.009  23.991   9.242
 5293W        W47304  21.749  25.101   1.268
 5294W        W47305   3.329  15.694   3.232
 5295W        W47306   5.369  11.234   0.418
 5296W        W47307  19.599   2.394  10.012
 5297W        W47308  16.639  16.314   2.602
 5298W        W47309   8.649  16.034   8.972
 5299W        W47310   7.469  22.941  11.242
 5300W        W47311   8.899  24.151  10.782
 5301W        W47312   0.021  17.954   9.362
 5302W        W47313  23.099  25.001  11.552
 5303W        W47314  20.339   8.984   8.642
 5304W        W47315  11.449  12.744   0.338
 5305W        W47316  10.159   1.914   2.922
 5306W        W47317  23.189   0.734  11.592
 5307W        W47318  11.849  22.011   4.112
 5308W        W47319  13.229   3.344   2.388
 5309W        W47320  20.239  17.244   2.652
 5310W        W47321  13.429  16.824   9.542
 5311W        W47322  10.539  21.771   9.742
 5312W        W47323  24.639   9.264   1.998
 5313W        W47324  16.479   9.834  15.452
 5314W        W47325   9.129  25.411   3.732
 5315W        W47326   9.959   1.804   8.302
 5316W        W47327   8.089  12.284  11.072
 5317W        W47328   4.949  13.534  10.532
 5318W        W47329  12.799   6.394   1.948
 5319W        W47330   3.709  23.871  11.892
 5320W        W47331  18.609   5.744   9.222
 5321W        W47332  22.829  19.364   8.982
 5322W        W47333  20.179  20.484   1.758
 5323W        W47334   0.119  24.971   2.158
 5324W        W47335  19.109  18.334   3.132
 5325W        W47336  14.089   2.284   9.462
 5326W        W47337  20.689  10.404   9.042
 5327W        W47338  12.509   3.674  15.432
 5328W        W47339  14.269  19.844   0.388
 5329W        W47340   3.309   7.964  14.622
 5330W        W47341   6.209  23.851  10.212
 5331W        W47342   1.739   7.154  10.822
 5332W        W47343  21.299   6.074   2.772
 5333W        W47344   9.049  11.834  14.112
 5334W        W47345  25.439  16.054   9.552
 5335W        W47346   1.659  17.684  10.842
 5336W        W47347  25.269   4.074   8.722
 5337W        W47348  24.639   8.894   8.082
 5338W        W47349  24.779  20.564   8.022
 5339W        W47350   3.689   6.334  11.752
 5340W        W47351   6.349   3.304   0.118
 5341W        W47352  18.079   2.464   1.678
 5342W        W47353  13.779   1.714   2.582
 5343W        W47354   6.489   8.344   1.458
 5344W        W47355   0.509   0.504  11.422
 5345W        W47356  13.829   4.814   1.078
 5346W        W47357  16.029  25.561  14.942
 5347W        W47358   3.669  20.034   0.198
 5348W        W47359   4.689   8.724  15.562
 5349W        W47360  12.299   0.984   4.282
 5350W        W47361  11.729  15.374   2.388
 5351W        W47362  12.599  20.774   9.062
 5352W        W47363   0.041   0.734  11.112
 5353W        W47364   5.449  19.974   3.792
 5354W        W47365  15.339   7.944  15.062
 5355W        W47366  25.379   9.234   9.072
 5356W        W47367  20.369   6.664   0.688
 5357W        W47368   6.699  19.724   8.852
 5358W        W47369  14.259   9.174  10.222
 5359W        W47370   1.419   7.454   9.552
 5360W        W47371  10.699  12.434   1.108
 5361W        W47372   0.169   0.284   7.732
 5362W        W47373   9.829  14.554   2.502
 5363W        W47374   8.489  10.144  10.812
 5364W        W47375   7.329  13.404   3.362
 5365W        W47376  22.539   8.184   2.358
 5366W        W47377  22.349  12.644   3.502
 5367W        W47378   8.689   2.964  10.942
 5368W        W47379   4.409  18.094  10.612
 5369W        W47380   8.299  20.624   0.428
 5370W        W47381  19.449  23.541   3.132
 5371W        W47382  20.889   0.414   1.638
 5372W        W47383  22.449  19.814   4.192
 5373W        W47384   9.129  23.181  10.702
 5374W        W47385   7.549  24.201   2.148
 5375W        W47386  19.229   3.484   8.372
 5376W        W47387  11.859  21.134   9.602
 5377W        W47388  17.229  18.254   8.662
 5378W        W47389  24.309  15.594   8.602
 5379W        W47390  17.599  19.944   4.072
 5380W        W47391  18.379  11.684   4.472
 5381W        W47392  11.339  22.191   8.192
 5382W        W47393  19.799  15.244   2.842
 5383W        W47394  20.849   2.294   0.358
 5384W        W47395  19.319  23.571   9.592
 5385W        W47396  23.259   4.394  10.172
 5386W        W47397   8.009  13.204   2.488
 5387W        W47398  15.079   6.024  14.432
 5388W        W47399  14.739  16.054  11.092
 5389W        W47400  13.069   8.444   1.138
 5390W        W47401   5.459   8.324   3.092
 5391W        W47402  21.909   9.984   7.552
 5392W        W47403  18.359   6.284  10.102
 5393W        W47404  10.879   1.254   3.732
 5394W        W47405  18.709  22.851   3.012
 5395W        W47406   7.079  22.541   9.222
 5396W        W47407   6.869  12.374  10.072
 5397W        W47408  24.079  15.984   0.998
 5398W        W47409   9.689   3.904  15.472
 5399W        W47410  24.919  12.334  15.432
 5400W        W47411  23.809  12.554   9.772
 5401W        W47412   4.459  20.804   3.152
 5402W        W47413   5.789   0.954   1.148
 5403W        W47414  22.409   7.734   1.338
 5404W        W47415  15.669  20.994   0.118
 5405W        W47416  24.679   0.694  11.342
 5406W        W47417  11.459  17.614   9.082
 5407W        W47418  20.379  13.584  10.172
 5408W        W47419  12.299   9.524   4.332
 5409W        W47420   7.879   4.454   0.138
 5410W        W47421   3.929   0.764   1.828
 5411W        W47422  10.879   3.204  15.152
 5412W        W47423   0.509  13.014   0.658
 5413W        W47424   5.129   6.144   1.088
 5414W        W47425  19.099  10.984   1.548
 5415W        W47426   2.639  24.341  10.002
 5416W        W47427   8.709  16.814  10.632
 5417W        W47428  24.069  19.624   8.702
 5418W        W47429  21.579  23.091  12.082
 5419W        W47430  13.089  11.134  14.792
 5420W        W47431   6.689  24.551   2.028
 5421W        W47432  19.749  24.061   0.318
 5422W        W47433  16.709  16.594   3.012
 5423W        W47434  17.979  16.414   0.338
 5424W        W47435   5.999  10.064   3.512
 5425W        W47436   3.799  14.154   7.052
 5426W        W47437  20.359  18.784   7.582
 5427W        W47438  16.949  13.934  15.022
 5428W        W47439   8.519   6.204   0.748
 5429W        W47440  17.689  20.234  15.542
 5430W        W47441  18.859   2.964   9.532
 5431W        W47442  13.749   8.444  10.182
 5432W        W47443   0.859   2.164   0.448
 5433W        W47444  11.579  17.974   2.378
 5434W        W47445  16.239  16.614  11.302
 5435W        W47446  25.559   6.494  15.012
 5436W        W47447  16.199  22.881  10.202
 5437W        W47448   3.959  18.264  15.112
 5438W        W47449  19.049   9.564  15.412
 5439W        W47450   7.989  19.524   1.038
 5440W        W47451  11.499  17.154   9.912
 5441W        W47452   7.779   3.014  11.272
 5442W        W47453   0.389   7.204  15.312
 5443W        W47454   3.529   9.024   0.388
 5444W        W47455  18.709  17.714   2.158
 5445W        W47456  13.689  21.361   8.592
 5446W        W47457  16.759   1.504   0.448
 5447W        W47458  10.509  15.844   4.872
 5448W        W47459  14.659  22.061   8.472
 5449W        W47460  17.319   1.724   8.022
 5450W        W47461  17.469   9.734  10.932
 5451W        W47462  13.799   9.314   8.782
 5452W        W47463   9.329   5.414   8.812
 5453W        W47464  19.499  15.184   1.168
 5454W        W47465  10.079  23.631   3.102
 5455W        W47466  20.389  18.534   1.388
 5456W        W47467  18.989  17.214  10.242
 5457W        W47468  20.859  16.264   9.332
 5458W        W47469  15.919  15.134   9.892
 5459W        W47470   5.389   2.104   2.048
 5460W        W47471  25.169   6.244   2.488
 5461W        W47472  11.449   1.004   1.688
 5462W        W47473  14.429  25.431   3.412
 5463W        W47474  11.069  11.734   3.382
 5464W        W47475   0.939   1.274   8.792
 5465W        W47476   9.609   4.284  11.722
 5466W        W47477  12.349  20.834   4.832
 5467W        W47478  14.089   7.134   1.478
 5468W        W47479  18.809   0.774   3.262
 5469W        W47480  10.679  17.734   3.372
 5470W        W47481  18.139  13.764   0.598
 5471W        W47482  17.249   8.374   2.088
 5472W        W47483   8.659   0.804  14.552
 5473W        W47484  13.859  14.894   3.472
 5474W        W47485   8.099  13.894   3.692
 5475W        W47486  16.679   7.794   0.478
 5476W        W47487  22.649   2.094  10.832
 5477W        W47488  13.739  20.134  15.832
 5478W        W47489  18.219  15.894   9.672
 5479W        W47490  12.099  21.214  10.032
 5480W        W47491   8.009  18.524  11.232
 5481W        W47492  11.619  22.301   0.578
 5482W        W47493  15.729  11.034   1.868
 5483W        W47494   2.429   1.674  15.612
 5484W        W47495   5.079  21.314  11.032
 5485W        W47496  17.159  21.304   8.942
 5486W        W47497  13.669  10.294   0.428
 5487W        W47498  11.449  22.461   8.612
 5488W        W47499   2.129   3.374   1.968
 5489W        W47500   6.189   5.594  10.442
 5490W        W47501  14.789   6.884   1.578
 5491W        W47502  20.719  19.124  15.832
 5492W        W47503   3.459   8.794   8.242
 5493W        W47504  17.629  20.404  12.162
 5494W        W47505   3.729   0.704   8.942
 5495W        W47506  15.969   9.004  15.532
 5496W        W47507   4.129  21.314   9.252
 5497W        W47508  21.839   7.794  10.392
 5498W        W47509  23.919   5.954   1.548
 5499W        W47510   2.119  14.254   4.022
 5500W        W47511  20.099  24.341   1.828
 5501W        W47512  17.739   6.714   9.892
 5502W        W47513  14.959   1.364   4.032
 5503W        W47514   8.849   6.874  14.902
 5504W        W47515  11.949  17.834   9.372
 5505W        W47516  18.109   8.784   2.418
 5506W        W47517   8.099  21.014   4.252
 5507W        W47518  11.359  11.344   5.712
 5508W        W47519  23.989  18.484   0.788
 5509W        W47520   0.939  14.784   9.642
 5510W        W47521   2.219   6.094   8.732
 5511W        W47522   4.489   6.304  11.032
 5512W        W47523   4.969   3.114   3.232
 5513W        W47524  10.129   3.614   0.478
 5514W        W47525  18.969  12.584   0.918
 5515W        W47526  15.319  22.171   0.858
 5516W        W47527  23.099  20.524   0.938
 5517W        W47528  20.219  13.604   1.528
 5518W        W47529  17.099  25.491   0.508
 5519W        W47530   2.279  20.554  15.172
 5520W        W47531   5.599   1.524  11.232
 5521W        W47532   1.839   6.324   0.268
 5522W        W47533  18.799   6.704   3.632
 5523W        W47534  20.329  12.664  11.252
 5524W        W47535   3.859  12.714   1.898
 5525W        W47536  15.789   6.774   2.722
 5526W        W47537   9.479  13.444   2.572
 5527W        W47538  20.829  19.924   0.998
 5528W        W47539  17.059  23.511   8.562
 5529W        W47540  23.999  18.324  11.422
 5530W        W47541  20.809  10.794   7.842
 5531W        W47542   8.229   8.254   8.542
 5532W        W47543  23.479   5.154   8.412
 5533W        W47544  18.729  15.174   9.832
 5534W        W47545   9.989   6.994  10.482
 5535W        W47546   7.009  12.714   1.508
 5536W        W47547   7.559  21.084   0.248
 5537W        W47548  22.919  12.104  11.032
 5538W        W47549  22.189   4.864   8.222
 5539W        W47550  15.829   0.044   1.568
 5540W        W47551  24.899   5.004   0.618
 5541W        W47552   6.699  17.574  15.192
 5542W        W47553   0.059  21.224   2.702
 5543W        W47554   0.659   9.294   2.228
 5544W        W47555  19.999  23.971  11.512
 5545W        W47556  12.579  23.451   1.848
 5546W        W47557   9.669  14.724   1.328
 5547W        W47558   9.989  22.421   3.932
 5548W        W47559  11.389  20.744   0.948
 5549W        W47560  19.819  17.544   9.932
 5550W        W47561   5.559  19.434   1.228
 5551W        W47562  22.079  15.544   3.092
 5552W        W47563   7.909   4.284   0.698
 5553W        W47564   7.429  10.494   3.212
 5554W        W47565  25.489   4.864  10.772
 5555W        W47566  15.969   4.394   2.772
 5556W        W47567   6.549  19.014   9.482
 5557W        W47568  18.969  10.834   7.712
 5558W        W47569  22.739  20.734   7.882
 5559W        W47570   6.319  11.304   2.318
 5560W        W47571   3.479   9.874  10.212
 5561W        W47572  20.279  14.204  15.432
 5562W        W47573  20.279   8.094   3.322
 5563W        W47574   1.209  15.154  10.002
 5564W        W47575   9.569   4.214   8.932
 5565W        W47576   3.049  24.791   7.672
 5566W        W47577  16.689  16.744  11.552
 5567W        W47578  23.759  25.121  15.822
 5568W        W47579  22.999  12.274  12.072
 5569W        W47580   2.399   4.364   0.978
 5570W        W47581  10.069  18.994   8.252
 5571W        W47582  21.739  22.361   8.382
 5572W        W47583  16.239  16.344  10.482
 5573W        W47584   8.999  10.084  10.102
 5574W        W47585   8.839   0.354   2.118
 5575W        W47586   8.719   1.514   4.332
 5576W        W47587  16.279  24.801  10.772
 5577W        W47588  17.659  10.334   0.488
 5578W        W47589  21.989   1.474   0.618
 5579W        W47590   4.899   0.974  15.862
 5580W        W47591  18.549  24.581   2.308
 5581W        W47592  11.699  14.514   3.172
 5582W        W47593  13.969   7.764   9.132
 5583W        W47594   7.549  21.801   1.058
 5584W        W47595  24.039   4.324   9.572
 5585W        W47596   8.889   4.004   2.602
 5586W        W47597   4.889  22.361   0.388
 5587W        W47598   8.279  23.081   2.712
 5588W        W47599  14.439   0.444   0.308
 5589W        W47600  11.849  15.304   2.932
 5590W        W47601  24.119  17.874  11.222
 5591W        W47602   9.069  14.044   2.398
 5592W        W47603   4.509  16.614  10.882
 5593W        W47604   3.979   2.644   4.162
 5594W        W47605  22.589  22.661   9.332
 5595W        W47606  12.389   7.944   8.792
 5596W        W47607   7.359  23.761  11.352
 5597W        W47608   1.129  22.461   9.552
 5598W        W47609  20.359  13.184   0.688
 5599W        W47610   2.129   2.754   1.268
 5600W        W47611  21.999  23.551   2.328
 5601W        W47612  10.529   9.734  15.752
 5602W        W47613  22.299  10.064   2.782
 5603W        W47614  10.699  19.084   9.002
 5604W        W47615  21.589  13.244  10.092
 5605W        W47616  14.439  21.254   9.022
 5606W        W47617  13.449  17.894   4.252
 5607W        W47618  22.009   6.614   0.328
 5608W        W47619  10.609   5.264   3.192
 5609W        W47620   2.979  11.014   0.478
 5610W        W47621  16.749  23.151   8.432
 5611W        W47622   1.629  19.194   1.058
 5612W        W47623   9.129  12.054   2.872
 5613W        W47624  21.289  20.714  11.142
 5614W        W47625  19.429  13.764   8.752
 5615W        W47626  22.749   5.684   2.278
 5616W        W47627  21.679   9.674  10.842
 5617W        W47628  25.219  15.474   0.688
 5618W        W47629  22.449  23.481   8.922
 5619W        W47630  19.089  15.254   1.798
 5620W        W47631  20.899   9.594   0.898
 5621W        W47632  25.569  22.241  11.402
 5622W        W47633  14.199  14.844  14.642
 5623W        W47634   6.529   0.904   1.698
 5624W        W47635  10.849   5.564  14.852
 5625W        W47636   5.659   7.094   3.682
 5626W        W47637  18.479  19.584   0.088
 5627W        W47638   0.889   9.934  15.762
 5628W        W47639   2.739   1.084  11.132
 5629W        W47640  23.569  15.694   7.482
 5630W        W47641  22.409  13.474   1.498
 5631W        W47642   0.499   2.384   9.982
 5632W        W47643  18.899   2.304  10.732
 5633W        W47644  18.629  18.834  10.832
 5634W        W47645   5.919  23.011  10.332
 5635W        W47646   8.419  20.704   9.402
 5636W        W47647   1.869  23.441   7.812
 5637W        W47648   8.409  12.884  10.292
 5638W        W47649   6.309  13.044   3.692
 5639W        W47650   2.539  11.764   7.052
 5640W        W47651  13.099  23.161  15.672
 5641W        W47652   4.579  19.374   0.108
 5642W        W47653  22.309  22.231   2.278
 5643W        W47654  11.389   3.774   8.602
 5644W        W47655   8.689   7.964   3.092
 5645W        W47656  13.549   8.944  10.212
 5646W        W47657   1.669   7.014  15.392
 5647W        W47658   0.899  19.934   0.838
 5648W        W47659  21.009  25.491   0.828
 5649W        W47660  21.129   7.124  10.692
 5650W        W47661   6.079  24.441   0.238
 5651W        W47662   5.729  18.704   9.102
 5652W        W47663  23.669   4.674   9.962
 5653W        W47664  10.559  12.454   3.752
 5654W        W47665  22.099  18.594   9.862
 5655W        W47666  15.919  21.314  10.182
 5656W        W47667  12.229   5.794   9.752
 5657W        W47668   7.719  22.741  10.172
 5658W        W47669  15.319   0.964  10.252
 5659W        W47670   4.559  13.734   1.038
 5660W        W47671   0.369   4.924   1.528
 5661W        W47672  22.019   7.444   8.682
 5662W        W47673  11.889  14.324   2.542
 5663W        W47674   3.359   8.704   1.198
 5664W        W47675   1.099   0.934  10.872
 5665W        W47676  24.669   0.954  10.832
 5666W        W47677   2.969   3.714   1.708
 5667W        W47678   8.349  15.644   9.042
 5668W        W47679   8.459  22.541   4.202
 5669W        W47680   9.189  19.974   3.442
 5670W        W47681  11.899  25.171   2.228
 5671W        W47682   8.719  24.151   9.862
 5672W        W47683   3.829   1.724   3.012
 5673W        W47684  24.229  15.124  15.342
 5674W        W47685   5.299   3.134   8.722
 5675W        W47686  16.059  23.061   0.398
 5676W        W47687   3.709  20.474   0.548
 5677W        W47688   5.709   2.194   1.198
 5678W        W47689  11.179  14.684   4.022
 5679W        W47690  13.379   0.874   0.228
 5680W        W47691   8.579  25.041   4.442
 5681W        W47692   7.599   0.654   2.742
 5682W        W47693  17.069   5.714   3.062
 5683W        W47694  17.499  21.154   0.108
 5684W        W47695  18.649  17.164   3.032
 5685W        W47696  19.529  16.914   0.318
 5686W        W47697  10.279   2.564  15.062
 5687W        W47698  20.719  16.444   0.558
 5688W        W47699   7.739  12.114  14.672
 5689W        W47700   1.909   8.574   9.902
 5690W        W47701   9.299  10.224  15.682
 5691W        W47702  16.779  14.814   9.912
 5692W        W47703  22.689   2.144   9.352
 5693W        W47704   8.829  19.704   3.142
 5694W        W47705   6.909  24.291   1.618
 5695W        W47706   0.879   0.774   6.972
 5696W        W47707  13.489  15.254  15.132
 5697W        W47708  16.099   9.404   0.158
 5698W        W47709   8.609  16.914   2.068
 5699W        W47710   8.529  21.721   9.372
 5700W        W47711  10.149  25.101   8.392
 5701W        W47712  21.919   0.454   3.322
 5702W        W47713   7.729  10.774   2.048
 5703W        W47714   2.179   6.354   9.862
 5704W        W47715  20.219  19.224   7.542
 5705W        W47716   6.679  16.354   0.208
 5706W        W47717  13.329  22.221   0.168
 5707W        W47718  23.109   0.974   1.208
 5708W        W47719  14.799  15.814   1.868
 5709W        W47720  18.589  22.881   0.118
 5710W        W47721  14.679  10.114  15.702
 5711W        W47722   5.279  21.244   0.398
 5712W        W47723  21.729   4.364   2.852
 5713W        W47724   9.879   4.064   0.678
 5714W        W47725  15.399  18.204   3.762
 5715W        W47726  23.589   2.394  10.232
 5716W        W47727  16.889   7.474   3.802
 5717W        W47728   5.519   4.204   8.042
 5718W        W47729  24.949  15.304   0.318
 5719W        W47730  12.349  20.414  10.302
 5720W        W47731   8.399   9.354   8.522
 5721W        W47732  16.899  19.754  11.502
 5722W        W47733   6.719  23.331  11.862
 5723W        W47734  24.459  12.494   0.798
 5724W        W47735  13.589   5.874   3.192
 5725W        W47736   4.669   0.554   2.642
 5726W        W47737  11.339   5.394  15.442
 5727W        W47738   1.739  18.254   2.108
 5728W        W47739  18.339   0.024   7.982
 5729W        W47740  16.049  19.084   2.438
 5730W        W47741  23.009   6.544  12.112
 5731W        W47742  21.499   5.154  15.262
 5732W        W47743   1.299  22.021   1.438
 5733W        W47744   2.809  24.361  11.402
 5734W        W47745  20.889  10.574   1.348
 5735W        W47746  22.769  14.184   2.138
 5736W        W47747  10.139   0.744   3.682
 5737W        W47748   7.219   0.494   7.942
 5738W        W47749  19.929   9.154   0.558
 5739W        W47750  15.409   6.584   3.342
 5740W        W47751  20.589  20.404   1.058
 5741W        W47752   0.539   9.914   8.922
 5742W        W47753   2.939  21.701   9.402
 5743W        W47754   8.879  22.001   2.318
 5744W        W47755  12.049  16.304  15.602
 5745W        W47756  15.659   0.334   0.698
 5746W        W47757   4.579   4.804   2.408
 5747W        W47758  17.599   6.404   2.188
 5748W        W47759  14.339   2.024  10.592
 5749W        W47760   7.529  21.831   0.498
 5750W        W47761  16.009  24.661   3.132
 5751W        W47762   0.819   5.194   1.398
 5752W        W47763   0.689  16.674  10.862
 5753W        W47764  21.969  21.901   1.978
 5754W        W47765   9.479  17.254   3.782
 5755W        W47766  21.979   2.864   2.532
 5756W        W47767   4.949  18.724   8.802
 5757W        W47768  11.469   0.534  10.612
 5758W        W47769   8.749   4.834  15.352
 5759W        W47770  24.509  18.374   4.262
 5760W        W47771   0.699   9.984   2.902
 5761W        W47772  10.479   9.234   1.618
 5762W        W47773   0.959   2.774  11.002
 5763W        W47774  11.269  22.001   3.972
 5764W        W47775  24.519  13.144  10.832
 5765W        W47776  24.419   0.724   1.258
 5766W        W47777  24.629  19.754  11.402
 5767W        W47778   1.519   1.924   0.688
 5768W        W47779   2.619  13.824  10.692
 5769W        W47780  24.149  13.054   7.872
 5770W        W47781  10.619  11.604   2.582
 5771W        W47782  23.349  15.364  15.162
 5772W        W47783   1.939  20.844   4.182
 5773W        W47784  10.449   3.444   3.362
 5774W        W47785  23.399  22.071   8.282
 5775W        W47786  11.529  12.244   0.388
 5776W        W47787   5.389  11.364   1.608
 5777W        W47788   3.429   9.684   0.078
 5778W        W47789   6.459  14.364  15.132
 5779W        W47790   3.549  15.574   9.852
 5780W        W47791   4.839   1.044   8.112
 5781W        W47792   1.339  23.871   9.002
 5782W        W47793  19.989   4.794   0.088
 5783W        W47794  21.369  11.824  11.242
 5784W        W47795  22.599  23.561   1.938
 5785W        W47796   6.329   5.834   2.358
 5786W        W47797   5.889  25.451   2.532
 5787W        W47798   1.549   0.904   1.068
 5788W        W47799   3.399  14.724   3.222
 5789W        W47800  13.619  22.641   3.372
 5790W        W47801   3.879   1.314  10.142
 5791W        W47802  18.839   3.934   3.492
 5792W        W47803  21.309  24.211  10.972
 5793W        W47804  13.129  13.514   1.558
 5794W        W47805  11.969  16.224   8.912
 5795W        W47806  20.419  21.471   1.288
 5796W        W47807   3.789  14.964   0.758
 5797W        W47808  25.229  10.884  10.832
 5798W        W47809   5.919  21.541   0.968
 5799W        W47810  18.119   9.724  10.152
 5800W        W47811  15.849  21.431   0.368
 5801W        W47812  14.789   6.304   1.898
 5802W        W47813  22.649  21.014   8.892
 5803W        W47814   0.459  25.401   0.818
 5804W        W47815   8.799  18.344   1.548
 5805W        W47816   5.349  17.974   3.452
 5806W        W47817  21.799   5.624   0.318
 5807W        W47818  16.269   1.384   0.718
 5808W        W47819  19.529  13.444   8.282
 5809W        W47820   1.199   6.414   7.892
 5810W        W47821  21.759  21.024  12.372
 5811W        W47822  25.579   3.014   7.512
 5812W        W47823  13.339   1.924   4.272
 5813W        W47824  15.919   5.494   4.382
 5814W        W47825   1.709   7.874   1.738
 5815W        W47826  17.389  15.694   1.848
 5816W        W47827  14.189   2.314   2.218
 5817W        W47828   6.149   0.104  10.482
 5818W        W47829  20.889  10.084   8.622
 5819W        W47830  21.259   9.074   2.178
 5820W        W47831  13.439  12.474  10.012
 5821W        W47832   8.259  20.714  10.592
 5822W        W47833   3.779   2.334  15.622
 5823W        W47834   6.899  24.651  11.252
 5824W        W47835  14.739  12.354   0.578
 5825W        W47836  21.979  23.181   3.222
 5826W        W47837   9.279  22.271  10.522
 5827W        W47838  21.769  24.221   7.562
 5828W        W47839   4.859  24.151   2.038
 5829W        W47840  19.089   3.854   1.908
 5830W        W47841   3.989   0.394   2.982
 5831W        W47842  13.529  25.491   9.022
 5832W        W47843  11.549   9.694  10.742
 5833W        W47844  12.739  15.884   1.228
 5834W        W47845  25.269   0.044   9.772
 5835W        W47846  22.819  20.804   8.482
 5836W        W47847  12.769   4.324   3.992
 5837W        W47848  12.069  15.214   5.442
 5838W        W47849  13.079  11.124   2.832
 5839W        W47850  11.359   4.264   3.282
 5840W        W47851  22.919  20.914   2.822
 5841W        W47852   3.869  23.761   2.952
 5842W        W47853  24.419  11.334  12.022
 5843W        W47854   5.719  24.681  15.122
 5844W        W47855  21.369  12.934   8.502
 5845W        W47856  16.359  24.531   2.108
 5846W        W47857   8.059  23.531   0.228
 5847W        W47858   6.729   7.254   1.508
 5848W        W47859  16.729  24.601   1.788
 5849W        W47860   4.749  10.044   8.432
 5850W        W47861   6.849  20.044   0.648
 5851W        W47862   1.389   0.084   3.322
 5852W        W47863  14.359   7.654   1.178
 5853W        W47864  19.529   8.634  11.652
 5854W        W47865  24.779  17.674  12.082
 5855W        W47866  21.579  17.354   1.108
 5856W        W47867   8.299   0.674   9.042
 5857W        W47868   3.199  11.514  10.342
 5858W        W47869  23.469   6.754  15.842
 5859W        W47870  17.669   2.354   2.932
 5860W        W47871   5.299   3.114   3.572
 5861W        W47872   7.939  18.174   2.612
 5862W        W47873  14.729   8.984  14.732
 5863W        W47874  21.619   7.164   8.962
 5864W        W47875   3.699  12.944  15.112
 5865W        W47876  19.059   2.084   3.022
 5866W        W47877  13.589   0.104   8.472
 5867W        W47878  23.429  19.014  11.302
 5868W        W47879  19.319  23.261   1.448
 5869W        W47880   3.069  13.604  10.482
 5870W        W47881  16.769  19.264  11.642
 5871W        W47882   4.409   3.444   9.992
 5872W        W47883   7.489  14.214   0.308
 5873W        W47884  16.429  24.151   1.808
 5874W        W47885   5.839  19.214   9.122
 5875W        W47886   1.399   2.544  10.832
 5876W        W47887   8.609   3.634   0.768
 5877W        W47888   4.449  12.004   0.228
 5878W        W47889  18.619  24.591   4.112
 5879W        W47890  21.989  13.204   2.268
 5880W        W47891   5.639  23.661   9.532
 5881W        W47892   0.649   4.374  10.242
 5882W        W47893  20.289  18.214  11.002
 5883W        W47894  14.429   1.714  11.022
 5884W        W47895  22.009  11.294   2.408
 5885W        W47896   7.549  22.831   2.048
 5886W        W47897  24.979  11.054   2.542
 5887W        W47898  20.909  16.754   9.472
 5888W        W47899   6.589   3.814  15.102
 5889W        W47900  14.899   6.344   3.462
 5890W        W47901   7.169   4.374   2.722
 5891W        W47902  24.159   6.294  10.762
 5892W        W47903  25.159  21.491   3.322
 5893W        W47904   0.419   8.004   1.778
 5894W        W47905  21.769   2.564   0.328
 5895W        W47906   5.579   8.994   7.332
 5896W        W47907  14.049  20.974   0.718
 5897W        W47908  25.359  10.204   0.688
 5898W        W47909   7.979   8.644   2.208
 5899W        W47910  15.939   8.164   0.958
 5900W        W47911   7.049   1.094   3.372
 5901W        W47912  11.469  21.751   2.782
 5902W        W47913  11.389  22.401  11.112
 5903W        W47914   7.289  25.311   1.748
 5904W        W47915   3.789  21.521   3.102
 5905W        W47916  11.239   4.894  10.192
 5906W        W47917  19.499   5.624   9.352
 5907W        W47918   3.759   0.194   8.582
 5908W        W47919   0.859  20.944   2.932
 5909W        W47920  20.019  20.294   0.588
 5910W        W47921  24.869  16.094  10.332
 5911W        W47922  19.069   8.544  15.092
 5912W        W47923  15.229  25.291   9.422
 5913W        W47924  13.909  21.421   1.848
 5914W        W47925  11.479  20.694   1.758
 5915W        W47926  11.339  18.184   9.962
 5916W        W47927   9.779   0.804   2.792
 5917W        W47928  24.639   7.774   1.828
 5918W        W47929  10.079  16.044  10.482
 5919W        W47930   7.989   2.234   9.592
 5920W        W47931  14.659  18.554  10.962
 5921W        W47932   9.499  16.904  15.092
 5922W        W47933   4.999  12.744   0.448
 5923W        W47934  16.369  19.484   9.862
 5924W        W47935  22.499   8.364  15.762
 5925W        W47936  13.839  21.801   3.062
 5926W        W47937   0.489  18.964   1.888
 5927W        W47938  23.899   9.674   9.392
 5928W        W47939   7.479  22.901   3.452
 5929W        W47940   7.669   2.074   4.232
 5930W        W47941   6.959  14.894   2.138
 5931W        W47942   0.859   6.214  10.962
 5932W        W47943   1.739  14.214  11.432
 5933W        W47944   0.989  21.284   0.818
 5934W        W47945   7.029   4.044   0.488
 5935W        W47946  24.979  11.404  10.882
 5936W        W47947  14.599  11.644   2.308
 5937W        W47948  18.109  13.114   9.582
 5938W        W47949   9.849  16.094   3.122
 5939W        W47950  14.929  17.064   1.278
 5940W        W47951  22.799  23.281   8.532
 5941W        W47952  21.719  17.824  11.472
 5942W        W47953   8.029  22.441   4.422
 5943W        W47954   4.839  11.414   2.542
 5944W        W47955   2.359  14.944   0.108
 5945W        W47956  15.229  17.284   9.192
 5946W        W47957  16.379  17.194   9.102
 5947W        W47958  13.059  17.054   0.668
 5948W        W47959  12.479  16.414   4.322
 5949W        W47960  22.729   7.624  10.452
 5950W        W47961   7.789   3.824   1.358
 5951W        W47962   7.619   8.054   9.672
 5952W        W47963  13.659  22.011  12.092
 5953W        W47964  13.209  10.734  15.542
 5954W        W47965   5.319  17.564   9.382
 5955W        W47966  10.739  19.784   2.642
 5956W        W47967   0.369  20.134   3.062
 5957W        W47968   8.849  10.924   1.278
 5958W        W47969   2.619   1.514   1.598
 5959W        W47970  24.039   0.344   1.728
 5960W        W47971   8.109   7.034  10.372
 5961W        W47972   3.649  11.034   3.182
 5962W        W47973   6.889   5.204  10.532
 5963W        W47974  17.239   4.334   2.058
 5964W        W47975  12.379  12.904  10.312
 5965W        W47976   2.879  17.894   0.858
 5966W        W47977   7.589   7.644   1.348
 5967W        W47978   9.869  12.214  15.662
 5968W        W47979   7.539  23.351   8.902
 5969W        W47980  25.079   1.514   1.918
 5970W        W47981   2.459  24.661   0.738
 5971W        W47982  19.509   3.844   2.208
 5972W        W47983  15.239   2.354   1.208
 5973W        W47984  16.429   8.474   2.572
 5974W        W47985  13.839   4.534   4.462
 5975W        W47986  10.889   1.324   8.752
 5976W        W47987  19.559  20.634   8.212
 5977W        W47988  14.759  19.794  10.552
 5978W        W47989   1.929  13.794  10.092
 5979W        W47990  23.929   1.994   7.982
 5980W        W47991   7.449  18.264   2.438
 5981W        W47992  11.679   9.234   2.782
 5982W        W47993  17.639   4.614   0.488
 5983W        W47994   2.529  11.564   3.672
 5984W        W47995  10.129   4.424   4.292
 5985W        W47996   9.979   5.814   3.732
 5986W        W47997  16.799   5.604   9.622
 5987W        W47998  23.329   7.324  10.592
 5988W        W47999   4.419   9.884   9.732
 5989W        W48000  15.969  17.664   0.898
 5990W        W48001   8.439   7.794   0.728
 5991W        W48002  14.939  12.304   2.832
 5992W        W48003   3.489  21.361   8.292
 5993W        W48004   4.109   9.384   1.468
 5994W        W48005  15.399  17.704   8.152
 5995W        W48006  15.969  20.744  10.402
 5996W        W48007  25.059   0.434  11.872
 5997W        W48008  22.199   3.394   1.808
 5998W        W48009  19.599   5.854  10.342
 5999W        W48010   7.449   1.154   2.942
 6000W        W48011   2.349  17.104   8.432
 6001W        W48012   1.549   3.944   1.468
 6002W        W48013   7.639   7.754   2.448
 6003W        W48014  21.709  22.921   9.172
 6004W        W48015   2.499  10.454   7.812
 6005W        W48016  21.399  15.814  12.702
 6006W        W48017   3.029  24.501   1.988
 6007W        W48018  17.129  22.661   0.958
 6008W        W48019  22.719  12.604   0.768
 6009W        W48020  25.319  25.131   1.328
 6010W        W48021   9.329  21.174   1.208
 6011W        W48022  11.619  19.324  11.072
 6012W        W48023  18.569   7.934   9.182
 6013W        W48024  10.159   9.724   2.672
 6014W        W48025  21.149  20.524  11.672
 6015W        W48026   1.779   0.714   0.138
 6016W        W48027  19.109  23.391  15.862
 6017W        W48028   9.569  15.654   4.442
 6018W        W48029   2.829  10.244   6.972
 6019W        W48030   8.259  17.054   3.332
 6020W        W48031  18.719   2.484   9.282
 6021W        W48032  21.749   7.504   1.788
 6022W        W48033  13.079   5.974  15.842
 6023W        W48034   7.409   3.454   1.318
 6024W        W48035   8.859  22.691  15.582
 6025W        W48036   7.529  12.494   0.838
 6026W        W48037  15.029   0.594  10.422
 6027W        W48038  19.539  15.084   8.982
 6028W        W48039  18.609   9.164   0.808
 6029W        W48040  22.409  13.954  10.042
 6030W        W48041   2.199   5.024   2.258
 6031W        W48042   4.099  25.141   2.582
 6032W        W48043  20.389  18.944  10.112
 6033W        W48044   2.839  25.231   0.618
 6034W        W48045   9.679   8.384  15.262
 6035W        W48046   7.509  19.294   9.032
 6036W        W48047  14.759  19.934   0.948
 6037W        W48048   7.449  10.244   3.732
 6038W        W48049   8.829  23.271   8.842
 6039W        W48050   0.869  23.491   0.768
 6040W        W48051   5.369  16.404   0.428
 6041W        W48052   9.099   7.434  10.972
 6042W        W48053  12.379  22.981   1.658
 6043W        W48054  12.629   6.604   9.092
 6044W        W48055  11.559  14.054   0.608
 6045W        W48056  17.799   1.564  15.302
 6046W        W48057  15.189   8.694   2.458
 6047W        W48058  22.979   8.784   3.092
 6048W        W48059  19.389  11.574   8.082
 6049W        W48060  18.189  15.014   9.252
 6050W        W48061   5.309   9.444   7.472
 6051W        W48062  23.919   5.934  14.992
 6052W        W48063   8.829  25.251   3.382
 6053W        W48064  24.739  12.314   2.992
 6054W        W48065   1.199   6.424   2.572
 6055W        W48066  15.439   5.434   9.872
 6056W        W48067   3.099  18.344   0.838
 6057W        W48068  16.459  25.021  10.262
 6058W        W48069  15.669  10.164   9.552
 6059W        W48070   4.569   9.224   9.002
 6060W        W48071   0.669  21.661   8.782
 6061W        W48072  20.069  15.164  15.632
 6062W        W48073   1.299   3.084   8.992
 6063W        W48074  10.759  24.571   0.268
 6064W        W48075   7.199  20.544  11.212
 6065W        W48076   3.069   4.404   1.658
 6066W        W48077  11.799  21.411   9.132
 6067W        W48078   0.179   4.534   6.432
 6068W        W48079   9.649  12.094   9.252
 6069W        W48080  17.399   2.844   1.228
 6070W        W48081  11.639  15.384  15.772
 6071W        W48082   6.119  24.861   9.912
 6072W        W48083  11.659   8.714   9.642
 6073W        W48084  17.289  18.394   9.202
 6074W        W48085   8.359  20.124   8.542
 6075W        W48086   3.549   6.724  15.242
 6076W        W48087   7.949  16.284  15.692
 6077W        W48088  12.759   3.034  10.262
 6078W        W48089  22.779   2.354   2.268
 6079W        W48090  21.749  20.374   4.072
 6080W        W48091  18.899  20.164   0.708
 6081W        W48092   2.309  10.094  11.532
 6082W        W48093  22.809   7.014   2.398
 6083W        W48094   2.099   8.604   9.312
 6084W        W48095   4.409  17.784   9.212
 6085W        W48096   2.209  17.674  10.512
 6086W        W48097  23.469   3.914   8.932
 6087W        W48098  14.769  11.234   9.492
 6088W        W48099   1.909  11.984   1.188
 6089W        W48100   4.289  23.611   1.018
 6090W        W48101  15.309   2.424   3.672
 6091W        W48102  23.329  11.874   1.798
 6092W        W48103  17.759   6.334   0.498
 6093W        W48104   7.399  24.881   8.732
 6094W        W48105  14.359  19.654   3.562
 6095W        W48106  23.309   1.994   2.078
 6096W        W48107  19.849  25.451  10.682
 6097W        W48108  13.719  10.134  14.782
 6098W        W48109  20.989   8.644   0.688
 6099W        W48110  20.039   0.574   2.772
 6100W        W48111  15.829   8.494  14.172
 6101W        W48112   8.289  21.034   3.672
 6102W        W48113  23.429  22.341   9.192
 6103W        W48114  12.289  18.144   0.858
 6104W        W48115   1.819  22.551  11.132
 6105W        W48116  24.099  21.094  15.852
 6106W        W48117  22.339  16.564   2.612
 6107W        W48118  18.359  18.844   1.128
 6108W        W48119  19.899  23.021   1.278
 6109W        W48120   4.499  19.414   9.492
 6110W        W48121  13.829  23.581  11.262
 6111W        W48122   3.959  20.134   3.352
 6112W        W48123   2.579  15.344   0.588
 6113W        W48124   8.589  15.554   1.438
 6114W        W48125  24.609  13.764   1.618
 6115W        W48126  25.219   6.224  11.602
 6116W        W48127   3.039   7.514   8.252
 6117W        W48128   9.479   7.054   8.482
 6118W        W48129  18.329  11.074   0.368
 6119W        W48130  19.829   0.494  10.702
 6120W        W48131   5.969  16.874   2.488
 6121W        W48132  11.379   5.114   1.748
 6122W        W48133  21.449  22.401   3.942
 6123W        W48134  15.719  21.881  10.132
 6124W        W48135   8.189   0.544   0.168
 6125W        W48136   4.289  22.461   0.228
 6126W        W48137  12.359  13.314   1.138
 6127W        W48138  16.949   7.014   0.778
 6128W        W48139  23.139  25.241   3.302
 6129W        W48140  20.889  19.804   8.672
 6130W        W48141  15.369  24.921  11.212
 6131W        W48142  14.169  10.564  15.632
 6132W        W48143   1.659   9.104   7.612
 6133W        W48144  13.919   3.534  14.212
 6134W        W48145  16.389  12.244   9.492
 6135W        W48146   7.589  24.131   3.872
 6136W        W48147   1.679  11.944   1.988
 6137W        W48148   1.379  21.651   3.372
 6138W        W48149  11.489   5.294  10.032
 6139W        W48150   3.639  21.371   9.172
 6140W        W48151   6.179  11.724   1.518
 6141W        W48152   6.959  11.704   2.692
 6142W        W48153   5.649   4.624   1.958
 6143W        W48154  13.859   6.224   3.812
 6144W        W48155  16.479   4.564   3.482
 6145W        W48156  22.169  23.491  10.562
 6146W        W48157  22.359   7.224   2.398
 6147W        W48158   3.159   4.294  10.282
 6148W        W48159   2.579   1.694   7.762
 6149W        W48160   4.029   8.264   0.118
 6150W        W48161  11.699  16.034   2.488
 6151W        W48162  21.239   3.634   8.292
 6152W        W48163  22.809  21.004  11.262
 6153W        W48164  18.969   7.994  15.792
 6154W        W48165   2.249  20.434  10.442
 6155W        W48166   9.319  13.244   3.482
 6156W        W48167  18.349  16.004   1.788
 6157W        W48168  14.309  18.344  15.872
 6158W        W48169   0.011   9.874  11.172
 6159W        W48170   8.519  20.334  10.392
 6160W        W48171  21.789  21.004   9.432
 6161W        W48172  16.259  15.774   0.388
 6162W        W48173   5.229  12.884   8.162
 6163W        W48174   4.349   7.554  10.492
 6164W        W48175   4.629  14.744   8.352
 6165W        W48176   9.849   2.764  15.342
 6166W        W48177  14.339  24.261   7.372
 6167W        W48178   3.989   1.414  11.022
 6168W        W48179   1.629   8.424   7.942
 6169W        W48180  22.959   8.064   8.842
 6170W        W48181  18.419   9.264   9.062
 6171W        W48182  13.889  16.584   2.782
 6172W        W48183  20.999  18.554   0.748
 6173W        W48184   8.389  25.571   9.022
 6174W        W48185  23.009   6.074   7.792
 6175W        W48186  25.359  22.291   4.562
 6176W        W48187   2.489   7.234   9.102
 6177W        W48188   7.149  17.004   1.878
 6178W        W48189  13.049  23.941   4.392
 6179W        W48190   4.929  18.674   9.732
 6180W        W48191  12.839   6.234   1.398
 6181W        W48192  21.989   6.664   1.788
 6182W        W48193  23.819  24.661  10.542
 6183W        W48194  17.609  19.054  10.102
 6184W        W48195  20.829   3.614   2.468
 6185W        W48196  22.959  24.911   7.552
 6186W        W48197  16.729  11.834   8.782
 6187W        W48198   4.779   4.964  15.692
 6188W        W48199   9.399  12.794   3.232
 6189W        W48200   9.719   9.154   8.462
 6190W        W48201   6.259   7.904   1.268
 6191W        W48202  18.659  23.641   9.122
 6192W        W48203   1.709   2.754   0.938
 6193W        W48204  21.039   9.064   9.832
 6194W        W48205  22.769   2.294   8.232
 6195W        W48206   8.549   4.654  10.032
 6196W        W48207  24.769   1.444   3.082
 6197W        W48208   8.739  22.791   1.968
 6198W        W48209   7.639  20.964  11.132
 6199W        W48210  11.699  14.964  15.402
 6200W        W48211  19.239  13.444   2.028
 6201W        W48212  21.839   2.034   2.248
 6202W        W48213  13.449  17.364  11.182
 6203W        W48214  10.219   1.404   8.042
 6204W        W48215   3.299  10.194  10.582
 6205W        W48216  19.519   2.544   8.882
 6206W        W48217  22.599  22.281   0.978
 6207W        W48218  15.519  23.331   9.222
 6208W        W48219  19.239   0.584   1.378
 6209W        W48220  24.169   3.214  10.412
 6210W        W48221  16.739  22.131  10.472
 6211W        W48222   5.249  19.514   3.712
 6212W        W48223   8.959   7.014   0.528
 6213W        W48224  21.819   0.424   9.822
 6214W        W48225  18.219   2.844   3.502
 6215W        W48226   6.409   4.794   7.682
 6216W        W48227   9.119   8.414   9.362
 6217W        W48228   4.749  16.154   2.792
 6218W        W48229  12.059  25.381   3.662
 6219W        W48230   3.249   5.734   0.688
 6220W        W48231   4.549  11.464   2.098
 6221W        W48232  22.819   4.604  10.032
 6222W        W48233  16.029  12.624  15.532
 6223W        W48234   3.079  12.084   0.088
 6224W        W48235  11.839  19.194   0.148
 6225W        W48236   1.509  23.391   9.812
 6226W        W48237   9.739   8.574   8.682
 6227W        W48238  20.919  16.634  12.502
 6228W        W48239   5.859   6.904   1.998
 6229W        W48240  13.699  11.174   0.178
 6230W        W48241  21.539  13.934   1.098
 6231W        W48242   3.099  11.244   0.048
 6232W        W48243  18.099  11.074  10.052
 6233W        W48244  20.879  22.731  10.682
 6234W        W48245   1.729   2.864   8.842
 6235W        W48246   2.959   4.434   8.072
 6236W        W48247  20.269  11.604  15.542
 6237W        W48248  11.839  16.244  10.352
 6238W        W48249  15.179  13.054   0.748
 6239W        W48250   1.579  23.551   8.182
 6240W        W48251  13.079   3.174  14.472
 6241W        W48252  17.969  15.884   1.048
 6242W        W48253  12.699  13.284   0.468
 6243W        W48254   9.529  12.354   2.912
 6244W        W48255  12.279  21.234  15.282
 6245W        W48256   0.021  19.184   0.978
 6246W        W48257   8.979  13.194   9.182
 6247W        W48258  14.619   6.944  10.482
 6248W        W48259  18.779   3.624   1.498
 6249W        W48260   9.229  13.714   0.288
 6250W        W48261  22.849   6.464   1.458
 6251W        W48262   9.419  12.574   0.978
 6252W        W48263  12.959   1.924   0.568
 6253W        W48264  13.619   8.364  15.302
 6254W        W48265  24.029   9.554  10.412
 6255W        W48266  18.049  14.554  10.942
 6256W        W48267  18.439   4.084   8.482
 6257W        W48268  22.179  21.084   8.622
 6258W        W48269   8.049   8.614   0.498
 6259W        W48270   2.989  22.631  11.732
 6260W        W48271   5.569  14.164   0.148
 6261W        W48272   6.849   8.194   8.522
 6262W        W48273  24.359  14.404  11.142
 6263W        W48274   9.249   8.284   0.148
 6264W        W48275   8.059   7.814   9.462
 6265W        W48276   3.149  19.854   0.828
 6266W        W48277   9.539  22.551  11.322
 6267W        W48278   9.019   1.804  10.742
 6268W        W48279   1.649   5.414   6.502
 6269W        W48280  16.549   4.554   0.298
 6270W        W48281  24.449  12.334   8.792
 6271W        W48282  13.699   8.674   9.112
 6272W        W48283  11.689  11.084   3.122
 6273W        W48284  15.789   7.134   1.268
 6274W        W48285  15.069   7.254   0.438
 6275W        W48286  19.469   7.924  15.782
 6276W        W48287  25.349  21.461   8.572
 6277W        W48288  10.839  21.641   8.752
 6278W        W48289  12.529  12.544   5.272
 6279W        W48290  13.519   0.474   3.992
 6280W        W48291  23.099  24.501   8.832
 6281W        W48292  20.949  12.074   2.358
 6282W        W48293   5.189   2.244   4.552
 6283W        W48294  10.049  16.744   1.918
 6284W        W48295  10.159   2.924   7.662
 6285W        W48296   0.779  14.504   1.568
 6286W        W48297   1.709  13.494   1.958
 6287W        W48298  24.069  18.694   9.482
 6288W        W48299  17.439   9.774   2.912
 6289W        W48300   7.879   5.184   0.768
 6290W        W48301  10.919  20.574   1.468
 6291W        W48302   0.159   3.164   8.482
 6292W        W48303  15.049  18.204   3.422
 6293W        W48304   7.119  12.324   2.872
 6294W        W48305  18.369  20.494  10.562
 6295W        W48306   5.499   0.884  15.062
 6296W        W48307   2.699  17.224   8.042
 6297W        W48308   8.889   7.534   9.432
 6298W        W48309   5.289   1.664   3.342
 6299W        W48310   3.019  12.144   0.628
 6300W        W48311  23.249   0.634   8.722
 6301W        W48312  18.579  10.224   9.212
 6302W        W48313   1.689  25.111   3.162
 6303W        W48314   3.579  18.804   9.152
 6304W        W48315  19.179  24.461   3.462
 6305W        W48316  22.229   4.034   8.302
 6306W        W48317  14.629  11.114   2.228
 6307W        W48318  23.779  13.334   8.812
 6308W        W48319  24.469  21.781  11.172
 6309W        W48320  12.009  19.104   9.892
 6310W        W48321   6.209  25.191   1.128
 6311W        W48322  21.959  25.041   9.962
 6312W        W48323  18.889  16.414   0.828
 6313W        W48324   6.459  21.134   3.112
 6314W        W48325   2.079  20.324   2.428
 6315W        W48326  12.069   2.774  15.112
 6316W        W48327  13.169  22.731   2.992
 6317W        W48328  21.849  15.264  11.602
 6318W        W48329   7.939   7.264   9.562
 6319W        W48330  20.189  23.251  11.442
 6320W        W48331   3.439   6.944   9.432
 6321W        W48332   0.379  20.994   3.092
 6322W        W48333  24.509  21.521   9.832
 6323W        W48334  16.169  19.334   1.298
 6324W        W48335  10.589  12.264  15.692
 6325W        W48336   8.099  23.091  10.272
 6326W        W48337  18.769   6.254   3.822
 6327W        W48338   0.399   2.834   8.722
 6328W        W48339  16.509  14.244   3.792
 6329W        W48340   0.219  21.371   2.178
 6330W        W48341   0.799   7.444  15.632
 6331W        W48342  24.639   7.034   8.732
 6332W        W48343  24.189  21.681   8.592
 6333W        W48344   7.759  16.284   8.362
 6334W        W48345  14.569   3.914   1.828
 6335W        W48346  15.439  11.974   9.192
 6336W        W48347  18.739  25.391  11.792
 6337W        W48348   9.879  21.541   8.162
 6338W        W48349   3.749  10.734   1.648
 6339W        W48350  17.369  18.634   8.322
 6340W        W48351  17.529  12.514   8.692
 6341W        W48352   9.879  17.354   2.108
 6342W        W48353  14.229  10.294   9.642
 6343W        W48354   5.549   0.624  10.312
 6344W        W48355   0.679  24.151   9.702
 6345W        W48356   4.059  25.301   7.982
 6346W        W48357   9.169  19.894   1.088
 6347W        W48358   5.259   3.534   2.792
 6348W        W48359  16.459   0.064   8.782
 6349W        W48360  16.579  20.014  11.262
 6350W        W48361   7.459  21.561   3.842
 6351W        W48362   9.519  10.374   3.532
 6352W        W48363   3.139  23.491   9.482
 6353W        W48364  18.959  13.834   2.248
 6354W        W48365   0.679  20.514   1.708
 6355W        W48366   5.549  24.991   0.298
 6356W        W48367   9.409   6.274   0.168
 6357W        W48368  17.029  21.521  11.522
 6358W        W48369   7.899  24.311   4.592
 6359W        W48370   3.359   0.554   9.932
 6360W        W48371   9.789  14.134   0.818
 6361W        W48372   5.399  10.404  10.282
 6362W        W48373  24.799   7.114   9.552
 6363W        W48374  18.739   3.274   9.132
 6364W        W48375  24.149  15.454   8.132
 6365W        W48376  23.759  18.644  11.762
 6366W        W48377  17.819  23.411  11.122
 6367W        W48378  17.729   7.834   0.708
 6368W        W48379  19.749   4.154  15.652
 6369W        W48380  10.369   3.844   2.288
 6370W        W48381  22.379   9.954   1.648
 6371W        W48382  12.509  25.481  10.502
 6372W        W48383  15.299   9.984   3.732
 6373W        W48384  11.999   3.414   9.592
 6374W        W48385  17.819   0.044   8.182
 6375W        W48386  24.899  24.461   2.278
 6376W        W48387  14.289  19.194   9.942
 6377W        W48388  15.109  18.254  10.212
 6378W        W48389  24.549  10.564   1.798
 6379W        W48390   4.289  19.754   3.182
 6380W        W48391  18.159   0.294   9.552
 6381W        W48392  10.099   1.274  10.502
 6382W        W48393  17.049  18.324   1.448
 6383W        W48394   3.969  11.594   2.842
 6384W        W48395  16.539   9.234   9.542
 6385W        W48396  10.559  12.094   2.512
 6386W        W48397   4.939  22.451  10.962
 6387W        W48398  23.319  19.404   8.272
 6388W        W48399  17.789  20.854  10.052
 6389W        W48400  22.069   7.164   9.092
 6390W        W48401  15.149  18.254  14.802
 6391W        W48402   2.619   9.464  15.722
 6392W        W48403  15.629   6.084   2.348
 6393W        W48404   9.729   8.734   1.768
 6394W        W48405   5.809   6.254   8.262
 6395W        W48406  19.559   7.814   9.852
 6396W        W48407   2.409   8.934  10.182
 6397W        W48408  19.789  12.364  10.552
 6398W        W48409  24.399  21.074   2.358
 6399W        W48410   0.059   6.404  10.262
 6400W        W48411  12.759   1.234  15.642
 6401W        W48412  14.099  16.534   8.702
 6402W        W48413   7.449   4.424   9.682
 6403W        W48414  18.609  16.234   2.822
 6404W        W48415  12.159  23.361  10.632
 6405W        W48416   3.479  13.284   8.792
 6406W        W48417   2.529  19.184  15.222
 6407W        W48418   8.169  20.414   2.762
 6408W        W48419   1.009   2.814  11.602
 6409W        W48420  11.499  13.684   4.542
 6410W        W48421  18.709  25.251  11.292
 6411W        W48422   4.369   5.004   9.152
 6412W        W48423  19.249  24.421   8.842
 6413W        W48424   8.819   9.044   9.042
 6414W        W48425  20.679   3.884   3.262
 6415W        W48426  24.579  24.631   0.048
 6416W        W48427   4.589   7.394   0.148
 6417W        W48428   8.179  14.184   9.012
 6418W        W48429  11.169   2.684  15.012
 6419W        W48430  24.689  22.881   2.228
 6420W        W48431  13.559  22.791  11.362
 6421W        W48432  12.899   2.584   2.512
 6422W        W48433   5.319   0.114   8.512
 6423W        W48434   1.399  14.154   8.132
 6424W        W48435  17.219  10.124   1.938
 6425W        W48436   9.109   7.384   8.972
 6426W        W48437   8.919  25.041   2.038
 6427W        W48438   2.779   1.174   8.602
 6428W        W48439  23.529  12.104   0.978
 6429W        W48440  16.309  12.494   2.982
 6430W        W48441   3.969  12.594  15.592
 6431W        W48442  24.159  20.554  11.402
 6432W        W48443   4.579  25.161  11.472
 6433W        W48444  10.039   8.674  15.502
 6434W        W48445  20.979   5.174  10.152
 6435W        W48446  13.029   6.544  10.422
 6436W        W48447  17.459  25.501   9.002
 6437W        W48448  19.159   7.714   0.358
 6438W        W48449  19.539   6.344   0.318
 6439W        W48450   5.309   3.564   0.898
 6440W        W48451  14.169  12.174  13.552
 6441W        W48452  13.349  12.644  14.522
 6442W        W48453  25.129   9.434  15.762
 6443W        W48454   1.799  20.134  10.742
 6444W        W48455   7.149  20.654   0.258
 6445W        W48456  15.889  22.991   9.752
 6446W        W48457  11.969  10.144   9.902
 6447W        W48458  18.569  25.151   9.362
 6448W        W48459   5.829   5.314   9.572
 6449W        W48460  11.869  23.551   2.742
 6450W        W48461  20.139  22.031   2.138
 6451W        W48462  17.909   0.454   2.068
 6452W        W48463  21.719  21.094   1.828
 6453W        W48464  25.209   0.234   7.902
 6454W        W48465  23.719  11.704   2.762
 6455W        W48466   5.719  19.734   3.432
 6456W        W48467   1.179  16.424   8.152
 6457W        W48468  22.209  14.404  10.022
 6458W        W48469   2.379  19.604  10.082
 6459W        W48470  19.389   7.004  15.672
 6460W        W48471   9.169   9.744  15.182
 6461W        W48472   2.639  14.884   2.178
 6462W        W48473   2.589   3.104  11.962
 6463W        W48474  24.209   9.394   7.392
 6464W        W48475  11.059  21.481   3.922
 6465W        W48476  21.179   6.614   9.712
 6466W        W48477   8.779  12.784  15.082
 6467W        W48478  15.259  12.404  10.852
 6468W        W48479  19.679  25.011   9.412
 6469W        W48480   4.989  17.914  15.872
 6470W        W48481   5.869   1.744   8.432
 6471W        W48482  14.439  21.821   8.092
 6472W        W48483  15.979  25.011  10.122
 6473W        W48484  16.689   4.904   9.642
 6474W        W48485   9.209  14.604   0.648
 6475W        W48486   8.619  12.884   2.772
 6476W        W48487  22.439   8.714   7.592
 6477W        W48488  16.829  22.151  11.012
 6478W        W48489   4.559   1.604   2.068
 6479W        W48490   4.119   2.984   7.102
 6480W        W48491   1.209  18.984  10.982
 6481W        W48492   7.939  14.564   8.332
 6482W        W48493   4.879  20.564  15.732
 6483W        W48494  19.459  17.644   1.318
 6484W        W48495  24.739  23.971   2.298
 6485W        W48496  21.359  11.104  10.302
 6486W        W48497  15.619  11.174  11.282
 6487W        W48498   7.879  16.404   9.412
 6488W        W48499  23.669  11.404   1.788
 6489W        W48500  10.549  20.244  15.702
 6490W        W48501  23.319   1.034   7.612
 6491W        W48502  17.769   9.344  14.852
 6492W        W48503  24.669  17.894   1.448
 6493W        W48504  18.469   7.344   0.588
 6494W        W48505  21.929   8.144   1.078
 6495W        W48506   4.289   1.344  15.062
 6496W        W48507   4.039  15.344  10.282
 6497W        W48508   9.999  14.364   3.352
 6498W        W48509  24.429  15.954   9.862
 6499W        W48510  14.939   3.114  10.502
 6500W        W48511  14.119  25.261  10.452
 6501W        W48512  23.079   2.534   9.912
 6502W        W48513   3.279  21.671   2.218
 6503W        W48514  16.309   4.754   1.208
 6504W        W48515   9.469  20.314   1.128
 6505W        W48516   1.829  10.784  10.702
 6506W        W48517  20.189   9.824   9.682
 6507W        W48518   3.729   6.484   1.368
 6508W        W48519   3.779   4.504   3.312
 6509W        W48520  16.059  18.774   1.898
 6510W        W48521  22.389  10.964   1.668
 6511W        W48522  18.779  12.244   0.638
 6512W        W48523   9.239  14.874   2.552
 6513W        W48524   6.499  13.634   9.302
 6514W        W48525  15.439   9.324   9.462
 6515W        W48526   9.539   3.254   2.792
 6516W        W48527  10.399  22.311   3.602
 6517W        W48528  20.629   4.244   9.512
 6518W        W48529  20.249  11.284   8.742
 6519W        W48530  11.629  25.331   0.948
 6520W        W48531  17.239  19.944   1.388
 6521W        W48532  11.499  12.094   9.942
 6522W        W48533   7.379   2.794   0.718
 6523W        W48534  12.399  11.104  14.392
 6524W        W48535   0.779   8.044  10.202
 6525W        W48536  23.389   6.444  10.942
 6526W        W48537  20.239  13.584  11.262
 6527W        W48538   0.499   6.424   8.402
 6528W        W48539  15.589  11.764  13.982
 6529W        W48540   0.149   3.074   0.538
 6530W        W48541  15.289   1.974  10.392
 6531W        W48542  12.489  18.864  11.282
 6532W        W48543  20.249  21.421  11.122
 6533W        W48544   6.859  14.944   9.212
 6534W        W48545  20.409   7.254  10.072
 6535W        W48546   7.709  14.664   9.792
 6536W        W48547  23.559  11.174   0.258
 6537W        W48548  25.569  17.294   9.762
 6538W        W48549   2.149  19.204  10.332
 6539W        W48550  19.699  17.384   9.482
 6540W        W48551   2.709   9.594   9.412
 6541W        W48552  20.179  14.994  10.312
 6542W        W48553  22.679  22.171  15.462
 6543W        W48554   7.329   8.064   1.698
 6544W        W48555  16.439  10.464   2.542
 6545W        W48556   9.619   3.704   3.032
 6546W        W48557   6.379   1.494   0.948
 6547W        W48558  22.069   6.214   3.412
 6548W        W48559  16.979   0.304   9.972
 6549W        W48560   2.729  21.034   1.898
 6550W        W48561  23.259   9.024   2.028
 6551W        W48562  12.309   2.294   8.362
 6552W        W48563   1.729  14.674  10.252
 6553W        W48564  20.579   1.194   1.458
 6554W        W48565   8.079  25.481  11.432
 6555W        W48566   2.359  12.924   3.512
 6556W        W48567  15.259  15.874  15.172
 6557W        W48568  21.789  16.014   3.152
 6558W        W48569  19.979  18.844   1.018
 6559W        W48570   7.659  14.494   2.488
 6560W        W48571   6.789  13.254  10.902
 6561W        W48572  11.959  18.744   5.562
 6562W        W48573  21.399  18.384   2.208
 6563W        W48574   6.579  10.074   9.952
 6564W        W48575   0.559   0.884  11.022
 6565W        W48576  11.919   1.264   0.308
 6566W        W48577   7.449   8.564  15.462
 6567W        W48578   6.729   0.704   0.398
 6568W        W48579   2.769   4.774   1.208
 6569W        W48580  23.799  20.434  11.092
 6570W        W48581   8.979  22.591   2.792
 6571W        W48582  17.769  17.234   3.112
 6572W        W48583   4.959   5.394   9.642
 6573W        W48584  16.029  23.511   3.652
 6574W        W48585  17.189  18.234   8.012
 6575W        W48586  12.469  15.964   3.542
 6576W        W48587  23.499  19.814  10.222
 6577W        W48588   2.029  20.224   8.112
 6578W        W48589   6.119  23.251  11.632
 6579W        W48590   2.079  23.531   8.312
 6580W        W48591  14.629   8.344  14.432
 6581W        W48592  11.629   1.644   2.258
 6582W        W48593  23.169   3.454   0.978
 6583W        W48594  12.109  18.144   8.922
 6584W        W48595   0.939  12.394   1.748
 6585W        W48596  15.899  21.931   9.202
 6586W        W48597  23.949  17.764   7.452
 6587W        W48598   3.859  19.774  11.462
 6588W        W48599   3.809  11.614  15.582
 6589W        W48600   1.749  23.871   3.392
 6590W        W48601   9.439  18.644   3.902
 6591W        W48602   4.279  10.194   1.728
 6592W        W48603   4.789  14.674   1.678
 6593W        W48604   8.529  13.854   0.548
 6594W        W48605   3.339  24.821   2.228
 6595W        W48606  15.359   0.184   9.622
 6596W        W48607  19.629  16.754   9.872
 6597W        W48608  15.959   4.694   4.212
 6598W        W48609   3.349   6.864   2.942
 6599W        W48610   7.059  12.234   8.422
 6600W        W48611  19.399  18.904  11.612
 6601W        W48612   2.629   7.864  11.682
 6602W        W48613  13.989  12.764   0.888
 6603W        W48614   9.469  18.774  15.532
 6604W        W48615   8.769  19.894   1.618
 6605W        W48616  14.339   8.864   0.408
 6606W        W48617  13.029   8.334   9.092
 6607W        W48618  10.029   2.554   1.928
 6608W        W48619   9.609  20.744  10.742
 6609W        W48620  20.519   6.424  10.422
 6610W        W48621   8.289  12.364   9.232
 6611W        W48622   1.079  24.031  10.032
 6612W        W48623  23.979  19.624  10.142
 6613W        W48624   7.319   4.114  15.222
 6614W        W48625  18.419   0.024   2.722
 6615W        W48626  16.089   3.914   8.432
 6616W        W48627  14.049   2.224   9.982
 6617W        W48628  17.739  15.734   1.438
 6618W        W48629   3.959  15.914   0.368
 6619W        W48630  19.879  17.254   0.428
 6620W        W48631  16.109  20.814   9.482
 6621W        W48632  16.119  15.914  10.342
 6622W        W48633   8.179  15.764   0.108
 6623W        W48634   8.809   7.164   1.548
 6624W        W48635  14.849  20.524   8.382
 6625W        W48636  23.579   7.864   2.652
 6626W        W48637   9.479  12.574  10.792
 6627W        W48638  15.659  15.064  15.212
 6628W        W48639   3.459   8.994   2.258
 6629W        W48640  19.329   6.734   3.462
 6630W        W48641   6.589   4.644   7.272
 6631W        W48642   8.919   2.364   3.092
 6632W        W48643   8.359  25.091   8.262
 6633W        W48644   8.809   0.264   7.542
 6634W        W48645  18.199  22.151   2.078
 6635W        W48646   1.759   5.104  10.622
 6636W        W48647   4.409  16.174   2.388
 6637W        W48648  14.929  12.504   0.128
 6638W        W48649  23.349  18.604   2.398
 6639W        W48650  25.239  16.024  11.592
 6640W        W48651  15.659   4.674   2.408
 6641W        W48652   3.189   6.724   7.372
 6642W        W48653  20.319   1.764   3.742
 6643W        W48654   1.679  21.831   2.148
 6644W        W48655   7.279   2.374  10.942
 6645W        W48656   0.679  22.721   7.692
 6646W        W48657   1.929  25.411   2.228
 6647W        W48658  17.899   5.624   1.958
 6648W        W48659  23.029   7.014   1.788
 6649W        W48660   2.949  15.024  11.042
 6650W        W48661  18.709   4.334   2.078
 6651W        W48662   6.109  12.464  15.622
 6652W        W48663  21.809   3.634   2.208
 6653W        W48664  23.399   1.554  11.132
 6654W        W48665   2.429   2.604  14.992
 6655W        W48666   4.539   2.334  10.532
 6656W        W48667  16.029  13.264  14.802
 6657W        W48668  25.299   7.674  10.012
 6658W        W48669  21.139   6.084  11.612
 6659W        W48670  15.829   4.024  15.542
 6660W        W48671   4.989   4.914   7.012
 6661W        W48672   5.529  25.551   1.518
 6662W        W48673  21.799  19.574  12.322
 6663W        W48674   5.139   2.514   0.448
 6664W        W48675  23.859  18.264  10.822
 6665W        W48676  12.509  16.754  10.082
 6666W        W48677  12.659  19.774   1.308
 6667W        W48678  25.519  13.774   1.128
 6668W        W48679   5.549  16.644   8.712
 6669W        W48680  15.549   7.154  15.532
 6670W        W48681  24.079   8.704   0.978
 6671W        W48682  23.859  17.664   3.322
 6672W        W48683  22.499  24.281  12.642
 6673W        W48684  15.799  16.404   2.348
 6674W        W48685  12.949  19.014  11.102
 6675W        W48686   9.489   9.314   3.232
 6676W        W48687  18.969  18.794  15.482
 6677W        W48688   6.479  23.491   9.942
 6678W        W48689   0.059  25.331   0.518
 6679W        W48690  12.699   7.674   9.532
 6680W        W48691  11.349  11.314  10.092
 6681W        W48692  24.599  14.834  10.152
 6682W        W48693   2.069   5.964   1.838
 6683W        W48694  12.639  17.214   3.982
 6684W        W48695  12.339  10.284  10.642
 6685W        W48696  12.389   6.474   1.118
 6686W        W48697  23.759  23.971   1.438
 6687W        W48698  21.989  12.434   8.012
 6688W        W48699  16.019  21.811   8.202
 6689W        W48700   5.029   9.594  14.992
 6690W        W48701  19.739  21.691   3.472
 6691W        W48702  22.609   3.704   6.942
 6692W        W48703  17.779  13.314  14.822
 6693W        W48704  18.949  13.234   9.902
 6694W        W48705   4.959  22.171   8.062
 6695W        W48706  19.519   9.284   9.112
 6696W        W48707  20.379  18.114   3.362
 6697W        W48708  21.309   3.294   8.682
 6698W        W48709  20.089   2.284  10.062
 6699W        W48710  18.089  18.434   1.818
 6700W        W48711   6.629   2.674   3.592
 6701W        W48712  11.339  15.254  11.022
 6702W        W48713   6.459   1.494   0.058
 6703W        W48714   0.269  10.534   1.868
 6704W        W48715   6.189   4.954   8.622
 6705W        W48716  16.009  24.351  10.802
 6706W        W48717   9.429  10.994  15.212
 6707W        W48718   1.959   5.394   2.502
 6708W        W48719  17.819  23.581   9.842
 6709W        W48720  14.329   6.174   3.592
 6710W        W48721   2.079   5.404   9.522
 6711W        W48722  10.379   0.184   9.042
 6712W        W48723  12.049  10.944  15.052
 6713W        W48724  14.659  18.924   8.232
 6714W        W48725  18.489  17.064   9.362
 6715W        W48726  15.969   0.554   2.872
 6716W        W48727  13.559  19.914  10.512
 6717W        W48728  17.619   3.924   8.662
 6718W        W48729  25.259   7.194  10.802
 6719W        W48730  18.279  16.494  10.492
 6720W        W48731   4.299  13.884   8.722
 6721W        W48732   1.679   1.034   9.132
 6722W        W48733  17.459  10.954   0.768
 6723W        W48734  12.709  16.374   3.232
 6724W        W48735  16.359   2.904   3.242
 6725W        W48736  13.639  20.044   8.162
 6726W        W48737  12.229  21.421   3.222
 6727W        W48738   2.969  19.834  10.952
 6728W        W48739  21.209   8.594   3.992
 6729W        W48740   5.649  17.494   9.732
 6730W        W48741   6.309  17.704  10.932
 6731W        W48742  24.869  18.814  11.672
 6732W        W48743  23.139   2.064   2.932
 6733W        W48744  12.339  15.544   0.058
 6734W        W48745  15.149  15.624   8.722
 6735W        W48746  24.729  19.954   9.952
 6736W        W48747   6.459  25.091   8.752
 6737W        W48748   7.109  23.881  15.752
 6738W        W48749  19.159  17.504   0.868
 6739W        W48750   0.689  21.791   7.922
 6740W        W48751   2.189  19.284   1.498
 6741W        W48752   7.129  22.871   2.962
 6742W        W48753  19.509   5.464   0.228
 6743W        W48754  19.799   6.134   2.018
 6744W        W48755  22.089  20.444   0.348
 6745W        W48756   2.099  11.564   8.702
 6746W        W48757  17.869  22.751   2.338
 6747W        W48758  24.639   6.904   7.722
 6748W        W48759  21.769  21.074   0.898
 6749W        W48760  14.889  15.524   1.028
 6750W        W48761  14.839   0.024   0.158
 6751W        W48762  16.059  25.321   1.938
 6752W        W48763   6.659   5.074  15.472
 6753W        W48764   1.219  19.824   2.028
 6754W        W48765  15.279  24.571   8.892
 6755W        W48766  21.909  15.254   1.818
 6756W        W48767  14.779  22.471   4.552
 6757W        W48768   4.389  18.984   4.682
 6758W        W48769   8.309  12.174   3.482
 6759W        W48770   6.569   5.924   8.862
 6760W        W48771  17.869   5.644   0.538
 6761W        W48772   4.229   6.504   9.102
 6762W        W48773  21.139  23.431   2.188
 6763W        W48774  10.159   5.704   9.812
 6764W        W48775  14.009  12.924   3.522
 6765W        W48776   3.619  21.871   4.452
 6766W        W48777  17.209   4.464   0.208
 6767W        W48778   4.969  20.704   9.402
 6768W        W48779  17.929   3.044   2.512
 6769W        W48780  17.729  14.404  11.302
 6770W        W48781   9.889   6.594   1.328
 6771W        W48782   4.929   2.074  10.632
 6772W        W48783   6.389   7.884  11.002
 6773W        W48784  25.159   0.544   8.422
 6774W        W48785  25.569  15.034   8.872
 6775W        W48786   7.629  19.654   2.632
 6776W        W48787  14.279   9.374   0.338
 6777W        W48788   4.479   7.214   9.722
 6778W        W48789  16.569  12.484   2.532
 6779W        W48790  20.429  17.504   9.032
 6780W        W48791  25.469   6.404   8.032
 6781W        W48792   9.489  15.284   0.068
 6782W        W48793  22.249   6.804  11.252
 6783W        W48794  10.749  21.441  15.442
 6784W        W48795   9.109   6.564   9.122
 6785W        W48796  10.689  25.521   1.608
 6786W        W48797   8.599  19.884   4.182
 6787W        W48798  17.859   9.064   3.282
 6788W        W48799  15.819   9.454   1.488
 6789W        W48800  16.719   7.064   8.342
 6790W        W48801  23.619   3.954   1.658
 6791W        W48802   6.929   6.384  11.302
 6792W        W48803   3.539   3.084   9.322
 6793W        W48804   1.089   0.334   1.978
 6794W        W48805   3.079   6.224   0.748
 6795W        W48806   1.429  24.661   3.162
 6796W        W48807  13.409  15.814  15.112
 6797W        W48808   0.479  17.084   2.128
 6798W        W48809  22.229   3.574  15.812
 6799W        W48810  16.339  14.784   3.112
 6800W        W48811   0.229  10.574   9.522
 6801W        W48812  17.689   2.734   1.598
 6802W        W48813   1.099   8.154  10.812
 6803W        W48814   5.639  13.154   2.488
 6804W        W48815  16.739  10.474  15.812
 6805W        W48816   7.699   2.104   1.368
 6806W        W48817  17.889   0.674  11.962
 6807W        W48818   1.269   7.044   0.708
 6808W        W48819   7.399  18.354  10.752
 6809W        W48820  16.789   0.784   2.168
 6810W        W48821  15.019   5.824  15.552
 6811W        W48822  15.039   7.594  10.012
 6812W        W48823  20.689  13.214  15.362
 6813W        W48824  22.989  24.871  12.052
 6814W        W48825   6.209   1.714  10.672
 6815W        W48826  16.619   5.454  10.372
 6816W        W48827  23.159   4.854   1.718
 6817W        W48828   7.219  15.814   0.488
 6818W        W48829  23.879   3.984   3.322
 6819W        W48830   7.509  13.924   1.298
 6820W        W48831   3.959  17.034   9.862
 6821W        W48832   2.339  24.051   9.612
 6822W        W48833  23.779  22.731   1.138
 6823W        W48834   1.909  25.271   2.742
 6824W        W48835   7.849  22.941   2.448
 6825W        W48836   5.719  16.764   4.332
 6826W        W48837   5.909   8.794   6.942
 6827W        W48838  11.009  15.084  15.122
 6828W        W48839  22.179  23.981   4.162
 6829W        W48840   1.889   5.754  15.432
 6830W        W48841   9.439   3.864   8.642
 6831W        W48842  18.369   6.064   7.612
 6832W        W48843  24.259  20.444  11.852
 6833W        W48844   4.739  13.574  10.082
 6834W        W48845  15.699  21.741   8.712
 6835W        W48846  22.169   9.374   0.718
 6836W        W48847  16.229  24.031   9.352
 6837W        W48848  24.359   8.114   2.168
 6838W        W48849   4.079  12.674   8.132
 6839W        W48850  11.469  23.871   0.378
 6840W        W48851   5.069   1.234   3.472
 6841W        W48852  15.519  24.241   0.028
 6842W        W48853  14.309  17.154   9.812
 6843W        W48854  18.259   5.254   0.288
 6844W        W48855   6.299   3.524   9.672
 6845W        W48856  18.509  14.684   1.968
 6846W        W48857   7.899   5.784   4.502
 6847W        W48858  10.209  11.344   4.262
 6848W        W48859  10.299  14.554   5.472
 6849W        W48860   8.649  10.894   9.352
 6850W        W48861  18.709   5.014   0.418
 6851W        W48862  21.789   4.154   8.602
 6852W        W48863  22.759  11.634   3.732
 6853W        W48864   3.899  18.264   2.772
 6854W        W48865  10.239  22.291  15.872
 6855W        W48866   1.059   1.614   1.628
 6856W        W48867  19.029  20.434  11.522
 6857W        W48868  24.129  20.874  10.992
 6858W        W48869  19.939   7.424   3.942
 6859W        W48870   2.219   0.934   8.412
 6860W        W48871   5.889  15.894   3.322
 6861W        W48872  20.529  15.944  12.792
 6862W        W48873  13.879   3.754  15.832
 6863W        W48874  15.649  15.564  15.172
 6864W        W48875  24.119  11.124   7.842
 6865W        W48876  10.369  21.224  15.702
 6866W        W48877  25.449  24.801   1.718
 6867W        W48878   0.529  24.561  11.482
 6868W        W48879   2.999   5.874   2.108
 6869W        W48880  21.929  18.154  10.612
 6870W        W48881  18.089  16.404   2.752
 6871W        W48882  17.039  21.861   1.418
 6872W        W48883   7.209  14.184   9.232
 6873W        W48884   2.649  21.631   8.962
 6874W        W48885   0.169   3.514  11.922
 6875W        W48886   9.569  21.401  15.102
 6876W        W48887  17.629   4.254  15.262
 6877W        W48888   6.239   4.494   2.842
 6878W        W48889  24.149  24.411   1.608
 6879W        W48890  18.149  25.451  11.262
 6880W        W48891  19.509  12.154  10.982
 6881W        W48892   5.239  20.124   1.898
 6882W        W48893  10.969  13.444   1.328
 6883W        W48894   0.011   5.044   9.682
 6884W        W48895  15.829  12.184   2.842
 6885W        W48896   0.609   3.044   6.752
 6886W        W48897  15.339   3.834   9.412
 6887W        W48898  23.049   9.324   9.532
 6888W        W48899  14.749   4.534   2.732
 6889W        W48900   7.279   8.544   1.788
 6890W        W48901  19.859   6.154   8.202
 6891W        W48902  15.229  23.961  15.252
 6892W        W48903  11.109   1.764   3.172
 6893W        W48904  13.439   8.074   2.972
 6894W        W48905  10.809   8.504   4.212
 6895W        W48906  20.209  14.084   1.208
 6896W        W48907  23.249  13.284   8.772
 6897W        W48908  17.119  11.574   8.752
 6898W        W48909  16.669   5.924   3.992
 6899W        W48910   0.041  12.634   8.562
 6900W        W48911   6.409   5.314   1.648
 6901W        W48912  17.379   1.054  10.912
 6902W        W48913  17.209   5.294   3.392
 6903W        W48914  17.099   7.184   8.752
 6904W        W48915   4.459  22.491  11.372
 6905W        W48916   2.959  23.501   9.972
 6906W        W48917  21.339  24.901  11.472
 6907W        W48918   0.749  13.444  10.782
 6908W        W48919  14.239   0.334   2.498
 6909W        W48920   8.739   6.034   8.232
 6910W        W48921   0.031  23.011   9.772
 6911W        W48922  21.069  23.811   0.458
 6912W        W48923  17.759  20.764   8.062
 6913W        W48924  10.699  15.064   9.612
 6914W        W48925   0.779  10.064   2.418
 6915W        W48926  13.789   0.074   9.442
 6916W        W48927  18.649  18.404   2.772
 6917W        W48928  18.489   9.974   9.672
 6918W        W48929   6.699  15.494  10.632
 6919W        W48930  23.469   0.084   2.532
 6920W        W48931  19.549  17.434  10.922
 6921W        W48932   1.909  13.854  15.782
 6922W        W48933   4.919  12.174  15.512
 6923W        W48934   5.369  12.624  10.612
 6924W        W48935   1.209  18.994  10.052
 6925W        W48936   7.509  19.874   3.982
 6926W        W48937  21.189   0.504   1.118
 6927W        W48938  18.259   5.634   0.948
 6928W        W48939  19.599   4.614  11.772
 6929W        W48940  14.159   0.164  10.222
 6930W        W48941  22.209   7.244   8.262
 6931W        W48942   9.179   7.114   9.412
 6932W        W48943  15.759  21.354  11.192
 6933W        W48944   6.299  21.471   9.052
 6934W        W48945  18.069  21.721   9.832
 6935W        W48946  13.049  25.111   7.912
 6936W        W48947  14.599  21.881   2.478
 6937W        W48948   3.109  20.814  14.962
 6938W        W48949  13.749   8.614   1.848
 6939W        W48950   0.259  17.474   1.118
 6940W        W48951  21.939   0.324   9.352
 6941W        W48952   3.069  12.194  10.022
 6942W        W48953  20.889  19.704  11.142
 6943W        W48954  18.939  19.474   2.418
 6944W        W48955  23.259   9.444   8.852
 6945W        W48956  24.509  22.201   3.562
 6946W        W48957  23.649  10.844  15.762
 6947W        W48958  17.539  12.494  10.222
 6948W        W48959  22.179   1.084   2.712
 6949W        W48960   9.279  18.534   3.382
 6950W        W48961  17.469  13.914  10.332
 6951W        W48962  12.929  22.241   3.032
 6952W        W48963   5.179  13.324   1.938
 6953W        W48964  14.669  18.194   1.848
 6954W        W48965   2.839   9.734   2.408
 6955W        W48966  19.529   8.154   1.508
 6956W        W48967   2.479   2.494  11.992
 6957W        W48968  18.229   6.764   4.002
 6958W        W48969  20.449  16.584   9.272
 6959W        W48970  22.729  16.794   9.432
 6960W        W48971  19.199   0.304   2.348
 6961W        W48972  10.639  17.314   2.522
 6962W        W48973  22.679   2.134  11.332
 6963W        W48974   1.289   2.414   0.038
 6964W        W48975   2.109   6.334   2.612
 6965W        W48976   8.939  16.334   1.708
 6966W        W48977   9.729  22.781   9.842
 6967W        W48978  20.779   5.694   0.748
 6968W        W48979   8.649  24.651   1.338
 6969W        W48980  24.209   7.644   1.348
 6970W        W48981   7.549   2.774   2.478
 6971W        W48982  16.639   5.854  10.022
 6972W        W48983   2.609  22.181   8.102
 6973W        W48984  16.809   4.364   9.452
 6974W        W48985  21.339  11.884  15.662
 6975W        W48986   7.849  14.624  10.362
 6976W        W48987  24.909   6.104   1.948
 6977W        W48988   9.809  20.234   0.718
 6978W        W48989  13.439  20.514   1.518
 6979W        W48990  14.139  17.314  15.002
 6980W        W48991   9.469  16.904   9.452
 6981W        W48992  11.389   9.304  13.882
 6982W        W48993   2.329  23.191   9.042
 6983W        W48994   1.039   3.284  10.882
 6984W        W48995  22.709  15.564  11.392
 6985W        W48996  22.499   2.694   1.108
 6986W        W48997  11.229  21.084   2.018
 6987W        W48998  11.059  18.074  10.982
 6988W        W48999   8.599   8.684  14.832
 6989W        W49000  23.289  20.304  10.982
 6990W        W49001  24.549  21.791   1.618
 6991W        W49002  15.739  25.361  11.462
 6992W        W49003  10.079  24.721  10.962
 6993W        W49004  14.039  18.254   1.368
 6994W        W49005   6.489   9.954   1.158
 6995W        W49006   3.859  25.181  15.022
 6996W        W49007  16.669   8.974   2.582
 6997W        W49008  13.039   5.674   3.942
 6998W        W49009   7.969   8.134   2.278
 6999W        W49010  11.819  17.644   9.922
 7000W        W49011  16.399  23.471   3.282
 7001W        W49012  17.389  18.714   8.792
 7002W        W49013  16.729  17.144   7.512
 7003W        W49014   3.519  25.011   3.352
 7004W        W49015   9.809  22.801  10.992
 7005W        W49016  14.139   5.814   4.012
 7006W        W49017   4.309   1.064  15.832
 7007W        W49018   9.159  25.501   2.138
 7008W        W49019  10.089   9.744   0.358
 7009W        W49020  23.259  19.764  11.382
 7010W        W49021  19.969  16.334  11.992
 7011W        W49022  18.709   8.314  14.862
 7012W        W49023  14.499  12.964   0.628
 7013W        W49024  12.099  11.344  15.422
 7014W        W49025   7.459  20.434   2.208
 7015W        W49026   2.979  14.614   8.852
 7016W        W49027  22.809   8.314   7.742
 7017W        W49028  23.969  22.231   1.078
 7018W        W49029  16.719  25.071  10.832
 7019W        W49030  19.979   6.984  10.362
 7020W        W49031  15.749  21.711  15.872
 7021W        W49032   7.639  17.884   4.722
 7022W        W49033  24.109   5.024   2.268
 7023W        W49034  16.139   3.464   2.408
 7024W        W49035  11.029  12.224   0.218
 7025W        W49036  23.779  23.541   2.672
 7026W        W49037   3.889   6.854   2.068
 7027W        W49038  16.479   7.314   3.572
 7028W        W49039  16.819  21.431   9.372
 7029W        W49040  11.739   5.584   8.872
 7030W        W49041  23.479   6.214   3.332
 7031W        W49042  22.739  18.034  12.622
 7032W        W49043   2.529   4.574   2.632
 7033W        W49044  22.899  16.704   1.438
 7034W        W49045  17.569  14.344   8.072
 7035W        W49046  10.649  12.894  15.382
 7036W        W49047   3.929   5.064   0.258
 7037W        W49048  15.529  18.254   0.168
 7038W        W49049  11.539  16.284  14.412
 7039W        W49050   1.979   0.374   2.118
 7040W        W49051   6.899  17.604   7.442
 7041W        W49052  16.699   5.274   1.158
 7042W        W49053   3.709   7.904   0.058
 7043W        W49054  16.439   0.294   1.228
 7044W        W49055   7.369   5.094   9.092
 7045W        W49056  12.679  18.604   0.188
 7046W        W49057  14.169  12.844  14.742
 7047W        W49058  14.669   6.014   9.512
 7048W        W49059   5.969  15.534  15.492
 7049W        W49060  17.329   0.604  10.632
 7050W        W49061  15.159   9.154  15.082
 7051W        W49062   0.031  18.754   1.978
 7052W        W49063   4.229  17.874   0.498
 7053W        W49064  23.949   3.544   2.338
 7054W        W49065  15.169  10.104  14.692
 7055W        W49066  10.269  21.961   9.382
 7056W        W49067   0.549  18.104   8.422
 7057W        W49068   9.039   0.984   3.672
 7058W        W49069  17.159   2.774   2.368
 7059W        W49070  23.119  23.771   9.442
 7060W        W49071  23.989   3.614   1.538
 7061W        W49072  22.029   6.014   1.578
 7062W        W49073  11.809  14.104   4.532
 7063W        W49074   4.269  17.274   9.342
 7064W        W49075  11.399   7.804  14.972
 7065W        W49076  11.999  11.604  15.012
 7066W        W49077  21.409  16.464   2.732
 7067W        W49078  19.349  21.471  10.702
 7068W        W49079  17.219   7.504  11.092
 7069W        W49080  24.449  10.514   0.988
 7070W        W49081   7.959  24.831   2.762
 7071W        W49082  24.189   2.154  11.092
 7072W        W49083  24.219   0.634  11.112
 7073W        W49084   6.749   6.354   8.592
 7074W        W49085  18.139   1.284   4.192
 7075W        W49086   8.999  23.771   2.108
 7076W        W49087  15.609  22.871   3.032
 7077W        W49088   3.049  19.064  11.532
 7078W        W49089   9.249  24.481   3.252
 7079W        W49090   5.369  19.484   2.612
 7080W        W49091  21.959  14.044   9.722
 7081W        W49092   5.659   3.174   1.128
 7082W        W49093  14.709  22.151   2.038
 7083W        W49094   8.179   1.984  10.042
 7084W        W49095  24.419   5.254   9.262
 7085W        W49096  11.939  11.194   3.822
 7086W        W49097   2.049   0.044   0.708
 7087W        W49098  25.169  17.414   3.052
 7088W        W49099   6.679  11.414   1.288
 7089W        W49100  23.589  25.141   0.998
 7090W        W49101   4.909  17.704   9.012
 7091W        W49102  10.749  21.781   0.578
 7092W        W49103  12.359  20.564   1.488
 7093W        W49104  11.459  11.114   4.042
 7094W        W49105   1.649  18.564  10.152
 7095W        W49106   1.699  14.514   2.138
 7096W        W49107   5.099  24.901   3.692
 7097W        W49108  18.769  10.744   9.112
 7098W        W49109  13.619   7.314  11.222
 7099W        W49110   2.149  15.654   9.352
 7100W        W49111   3.109  13.964   1.358
 7101W        W49112  25.149   1.424  11.872
 7102W        W49113  21.159  14.244  10.312
 7103W        W49114  24.529  20.114   1.468
 7104W        W49115  22.039  13.044  10.872
 7105W        W49116  12.839   2.704   3.022
 7106W        W49117   7.579  15.584   2.932
 7107W        W49118  10.169  18.734   8.722
 7108W        W49119  17.019  25.221   3.112
 7109W        W49120   0.129   4.444  15.792
 7110W        W49121  15.149   7.064   2.338
 7111W        W49122  18.009  14.324  15.652
 7112W        W49123  12.279  17.444   0.488
 7113W        W49124  11.289  21.144   3.592
 7114W        W49125   2.439  17.514   1.688
 7115W        W49126   4.289   6.384  15.592
 7116W        W49127   7.599  16.124   9.672
 7117W        W49128  17.399  23.141   9.622
 7118W        W49129  19.299  21.731  11.352
 7119W        W49130   3.959  18.474   3.552
 7120W        W49131   8.949  20.064  10.612
 7121W        W49132  13.529   7.684   8.862
 7122W        W49133  13.249   9.014  15.292
 7123W        W49134   4.109  19.714  11.002
 7124W        W49135  14.249  18.514   2.712
 7125W        W49136  20.329  15.304  10.752
 7126W        W49137   8.139   4.154   1.478
 7127W        W49138  25.519  13.614   2.852
 7128W        W49139  25.589  17.474   9.312
 7129W        W49140   4.879   9.514  10.252
 7130W        W49141   6.059   7.424   7.732
 7131W        W49142   8.109  15.024   2.782
 7132W        W49143   8.849  19.504   1.298
 7133W        W49144   3.749   8.334   1.048
 7134W        W49145   5.539  24.761   1.798
 7135W        W49146  10.649   4.124  14.962
 7136W        W49147  21.269  18.404  11.002
 7137W        W49148   2.389  20.554   8.462
 7138W        W49149  23.809   3.604  11.132
 7139W        W49150  10.939  14.524  14.722
 7140W        W49151  15.779   4.654  10.902
 7141W        W49152  15.809  15.664   2.862
 7142W        W49153  11.599   7.964   1.498
 7143W        W49154  13.509   2.354   7.992
 7144W        W49155   3.459  19.964  15.582
 7145W        W49156  10.789  12.324   2.118
 7146W        W49157   3.929  13.814  15.812
 7147W        W49158  18.969  20.054  15.732
 7148W        W49159  11.679  17.394   1.168
 7149W        W49160   7.839  12.344   9.102
 7150W        W49161   5.479   3.544  10.552
 7151W        W49162   1.199   4.234   7.852
 7152W        W49163  17.059  16.444  10.842
 7153W        W49164  24.459  11.304   9.592
 7154W        W49165  14.479  25.011  10.652
 7155W        W49166  19.929  14.974   8.602
 7156W        W49167  22.669  12.664   8.692
 7157W        W49168   3.099   6.464  11.832
 7158W        W49169   8.439  12.964   2.308
 7159W        W49170   5.579   5.654   1.738
 7160W        W49171   1.169   1.524   7.672
 7161W        W49172   5.859   5.924   7.802
 7162W        W49173   4.449  14.004   1.618
 7163W        W49174   3.619  18.694   1.468
 7164W        W49175  16.429   1.064   9.722
 7165W        W49176  24.859   2.034   2.882
 7166W        W49177  12.099  15.164  15.642
 7167W        W49178   0.049   4.324   0.888
 7168W        W49179  10.129   7.204  15.212
 7169W        W49180  12.569   6.924   2.682
 7170W        W49181   8.149  22.271   3.112
 7171W        W49182  17.719  19.554   2.712
 7172W        W49183  17.609  10.604   8.652
 7173W        W49184  17.939  19.464  10.302
 7174W        W49185  14.289  12.934   4.512
 7175W        W49186  19.609   4.554   3.002
 7176W        W49187   5.069  15.724   2.862
 7177W        W49188   0.939  11.924   0.928
 7178W        W49189  14.609  25.311   0.478
 7179W        W49190   3.389  18.154   2.348
 7180W        W49191   9.149  12.144   4.622
 7181W        W49192   2.249  21.721   8.642
 7182W        W49193   5.779  12.204   8.402
 7183W        W49194  12.309  14.544   0.348
 7184W        W49195   2.019   5.714   0.688
 7185W        W49196  13.539  22.921   5.092
 7186W        W49197   4.899  12.714   3.262
 7187W        W49198  12.309   9.824   0.268
 7188W        W49199  12.669   2.134  14.802
 7189W        W49200  19.329  18.544   1.728
 7190W        W49201  19.729   8.904   9.402
 7191W        W49202   8.599   1.154   3.442
 7192W        W49203  19.489   2.954   1.598
 7193W        W49204   6.509  11.624   2.672
 7194W        W49205   6.799   9.474  11.002
 7195W        W49206  11.589  12.434   3.292
 7196W        W49207  22.399  11.354  14.932
 7197W        W49208  13.999  20.844   2.672
 7198W        W49209  16.179   1.974   3.642
 7199W        W49210  23.149  21.591  10.582
 7200W        W49211  19.649  20.684  11.442
 7201W        W49212  10.459   2.714   2.168
 7202W        W49213  14.819  19.154   0.358
 7203W        W49214   8.539  22.901  10.432
 7204W        W49215  15.999   4.834   3.722
 7205W        W49216   7.339   5.204   2.782
 7206W        W49217   5.199  14.894   2.572
 7207W        W49218  10.599  12.634   1.788
 7208W        W49219  22.279   9.054   9.602
 7209W        W49220  18.009  21.951   8.822
 7210W        W49221   6.399  16.324   7.622
 7211W        W49222   2.829  11.414   2.752
 7212W        W49223   3.969   6.964   9.032
 7213W        W49224  11.039   5.484   1.778
 7214W        W49225  15.499  18.324   8.942
 7215W        W49226  11.109  19.474   0.388
 7216W        W49227   3.029  18.794  10.152
 7217W        W49228  23.549  17.514   9.502
 7218W        W49229  21.969  12.954   9.202
 7219W        W49230  18.189  13.354   0.148
 7220W        W49231   6.539   7.724   1.698
 7221W        W49232  14.869  24.861  11.182
 7222W        W49233  21.519   2.934   0.758
 7223W        W49234  14.039  21.104  10.562
 7224W        W49235  15.619   9.324  15.202
 7225W        W49236   7.499   3.674   1.738
 7226W        W49237  11.559  12.134  15.342
 7227W        W49238   4.269  14.514   0.658
 7228W        W49239   0.159  23.601   3.422
 7229W        W49240  11.879  24.661   1.978
 7230W        W49241  13.889   9.284   9.892
 7231W        W49242  16.169  12.514   8.532
 7232W        W49243  20.159   3.044   7.992
 7233W        W49244   7.289  10.714   9.552
 7234W        W49245  10.779  18.954   0.088
 7235W        W49246  18.329   3.814  11.642
 7236W        W49247  16.409  16.754   7.572
 7237W        W49248   9.019   4.574   1.528
 7238W        W49249   4.259  25.191   9.222
 7239W        W49250   7.419   7.024  10.522
 7240W        W49251  12.379  16.124   5.472
 7241W        W49252  22.449   6.654   2.258
 7242W        W49253   9.779   0.184  15.392
 7243W        W49254  16.009   3.794   0.318
 7244W        W49255   3.169   7.194   7.652
 7245W        W49256   7.149  11.444   1.068
 7246W        W49257   1.939   0.924  15.352
 7247W        W49258  13.459  12.644   0.518
 7248W        W49259  14.399  13.074   5.022
 7249W        W49260   7.529  11.234   0.858
 7250W        W49261  22.119  16.054   3.812
 7251W        W49262  11.869   9.464  10.442
 7252W        W49263   2.549  20.444   9.442
 7253W        W49264  17.369   0.464   7.262
 7254W        W49265   1.379  10.394   8.152
 7255W        W49266   4.879  15.984   1.178
 7256W        W49267  20.089   9.754   8.082
 7257W        W49268  24.159  12.554  10.152
 7258W        W49269   1.429  18.744  11.822
 7259W        W49270  13.339  13.334  14.002
 7260W        W49271  15.139  20.634  11.192
 7261W        W49272   8.849   1.904   9.392
 7262W        W49273  12.709   2.824   1.858
 7263W        W49274   2.949  23.041   8.252
 7264W        W49275  18.039  16.354  15.112
 7265W        W49276  12.909  23.361   2.812
 7266W        W49277  13.929   9.664   3.782
 7267W        W49278   4.169  12.374  14.692
 7268W        W49279   7.689  11.464   1.518
 7269W        W49280   4.339  24.881   1.558
 7270W        W49281  23.539  21.721   1.748
 7271W        W49282   8.699   4.354   9.132
 7272W        W49283  23.159   3.274  15.562
 7273W        W49284  25.369   2.794   3.342
 7274W        W49285   4.309  16.134  15.312
 7275W        W49286  23.429  15.324   0.568
 7276W        W49287  12.389  15.574   1.018
 7277W        W49288  18.839  24.831   1.498
 7278W        W49289  12.769  22.251   0.058
 7279W        W49290   6.709  17.334   8.952
 7280W        W49291   3.589   9.294  15.702
 7281W        W49292   9.079   9.134   9.682
 7282W        W49293   4.879  15.194   2.268
 7283W        W49294  20.229   9.494   8.732
 7284W        W49295  17.959   5.094   2.048
 7285W        W49296   6.749  13.644  10.482
 7286W        W49297  19.549   3.684  15.872
 7287W        W49298  23.299  16.754   2.418
 7288W        W49299  22.069  17.234   2.512
 7289W        W49300   2.669  24.991  15.132
 7290W        W49301  19.169  20.544   2.358
 7291W        W49302   4.819   6.704  10.442
 7292W        W49303  19.779  13.624   3.452
 7293W        W49304  12.249  23.471   2.288
 7294W        W49305  19.829   9.664  15.572
 7295W        W49306   8.559  22.391  10.552
 7296W        W49307  12.739  25.041  10.862
 7297W        W49308   6.889   8.434  15.602
 7298W        W49309  25.519   9.384   9.532
 7299W        W49310  15.039   2.134   0.758
 7300W        W49311   5.959   6.744   3.542
 7301W        W49312   2.319  24.681   8.822
 7302W        W49313  15.869   3.634   9.402
 7303W        W49314   4.769  25.041   1.288
 7304W        W49315   3.189  12.534   9.122
 7305W        W49316  15.939   8.934   1.498
 7306W        W49317  21.789   4.244  10.602
 7307W        W49318   8.279   1.224   2.078
 7308W        W49319  22.589   5.144   1.168
 7309W        W49320   2.639   1.014   1.618
 7310W        W49321   9.339   1.724  15.082
 7311W        W49322  16.579   1.454  10.922
 7312W        W49323   0.809  16.674   3.152
 7313W        W49324  11.729  18.524   8.532
 7314W        W49325  20.419   5.414   9.192
 7315W        W49326   6.509  16.244   9.152
 7316W        W49327   6.499  11.504  15.442
 7317W        W49328   5.079  15.994   2.358
 7318W        W49329   2.899   7.384  10.042
 7319W        W49330  23.479   0.554   1.358
 7320W        W49331   7.519  12.694   9.962
 7321W        W49332  23.359   0.054   0.658
 7322W        W49333   8.169   5.094  10.802
 7323W        W49334   1.389   0.014   7.872
 7324W        W49335  12.299   2.634   8.882
 7325W        W49336   8.139  17.404   9.802
 7326W        W49337  21.389   5.064   0.388
 7327W        W49338  12.489   8.664   1.128
 7328W        W49339  12.669   0.724   4.912
 7329W        W49340   8.469  11.424   8.492
 7330W        W49341  21.379   4.794   7.822
 7331W        W49342  18.269   3.414  14.752
 7332W        W49343  23.829  11.124   2.702
 7333W        W49344  16.029   4.354   0.128
 7334W        W49345  22.009  16.534  11.792
 7335W        W49346   9.069   7.434  10.282
 7336W        W49347  22.369  12.234   2.098
 7337W        W49348  19.519   9.614   4.172
 7338W        W49349   3.039  23.741   3.032
 7339W        W49350  19.889  19.634   1.568
 7340W        W49351  21.099  25.181  11.082
 7341W        W49352   5.479  22.001   2.622
 7342W        W49353  22.709  19.324   3.372
 7343W        W49354   2.119  10.044   0.248
 7344W        W49355  14.959  15.344   2.348
 7345W        W49356   7.999  19.364   3.032
 7346W        W49357   4.999   1.604  10.132
 7347W        W49358  17.729  24.601   2.642
 7348W        W49359   8.189   8.694   7.742
 7349W        W49360   5.069  15.684  11.092
 7350W        W49361  12.599   4.894   8.252
 7351W        W49362   8.519   8.614   2.592
 7352W        W49363  10.739   9.884   3.322
 7353W        W49364   4.029  19.534   0.728
 7354W        W49365  23.539  13.814   9.472
 7355W        W49366   3.219  15.844  10.762
 7356W        W49367  23.219   9.494  11.012
 7357W        W49368  24.999  24.611   1.708
 7358W        W49369  14.819  11.954   3.932
 7359W        W49370  16.149  11.924   3.142
 7360W        W49371   7.889  24.371   1.788
 7361W        W49372   7.279  14.224   8.702
 7362W        W49373   0.129  14.794   9.312
 7363W        W49374  10.999   0.254  11.202
 7364W        W49375  19.799   3.714  11.962
 7365W        W49376  13.249   9.834   0.428
 7366W        W49377  10.089  25.481   9.312
 7367W        W49378  21.389  24.221   8.252
 7368W        W49379   2.329  12.274   0.088
 7369W        W49380  19.819  12.524  11.082
 7370W        W49381  21.959  18.384   7.822
 7371W        W49382  18.039  19.104  11.312
 7372W        W49383   8.019   0.234   0.668
 7373W        W49384   5.229   7.634   7.732
 7374W        W49385  15.809   7.434   4.622
 7375W        W49386   9.489  17.004   1.148
 7376W        W49387  18.229   7.064  14.712
 7377W        W49388  23.739  20.754  10.692
 7378W        W49389  14.329  14.784   4.292
 7379W        W49390  20.379  16.584  11.992
 7380W        W49391  22.929  13.114   0.278
 7381W        W49392  21.509  15.984  11.552
 7382W        W49393  25.069  21.791   2.742
 7383W        W49394   2.759   6.954   9.942
 7384W        W49395  12.229  23.371   0.878
 7385W        W49396   2.069   1.554  11.552
 7386W        W49397   2.119  23.501   1.338
 7387W        W49398  20.709  19.814   9.152
 7388W        W49399  11.709   5.494   1.568
 7389W        W49400   0.239  17.324  15.622
 7390W        W49401   4.159  19.784   9.192
 7391W        W49402  18.329   2.504   8.022
 7392W        W49403  20.329  10.844   1.958
 7393W        W49404  19.439   2.834  15.742
 7394W        W49405  19.859   1.874   9.672
 7395W        W49406  24.469  11.534   0.528
 7396W        W49407   9.509  13.424   0.628
 7397W        W49408  13.959  21.014   9.082
 7398W        W49409  20.949  15.624   1.088
 7399W        W49410  12.289  22.401   0.988
 7400W        W49411  15.599   8.574  11.062
 7401W        W49412  19.349   3.984   8.802
 7402W        W49413   0.239   1.064  10.622
 7403W        W49414  13.419   4.194  14.042
 7404W        W49415   1.779  14.224   9.472
 7405W        W49416  19.299  21.214  11.252
 7406W        W49417   8.709  10.604   0.668
 7407W        W49418  22.489  22.881   0.778
 7408W        W49419   2.829  11.154   2.158
 7409W        W49420   9.459  14.734  15.822
 7410W        W49421  21.519  17.304   0.288
 7411W        W49422  22.549  16.194   1.658
 7412W        W49423  13.509   3.924  10.572
 7413W        W49424   4.999  22.931   8.612
 7414W        W49425   5.739  10.754   8.842
 7415W        W49426   7.499   1.744   0.988
 7416W        W49427   2.029   4.374  11.842
 7417W        W49428   1.659   2.014   9.382
 7418W        W49429   2.559  11.284  10.012
 7419W        W49430  17.129   0.944   9.082
 7420W        W49431  14.379  14.364   1.458
 7421W        W49432  14.079   5.744   2.038
 7422W        W49433   0.249  13.994   1.968
 7423W        W49434  22.679   5.144   2.468
 7424W        W49435   5.229   1.424   1.738
 7425W        W49436  18.929   4.414  11.102
 7426W        W49437   4.309  20.534   3.512
 7427W        W49438   5.479   3.424   9.962
 7428W        W49439  22.739   6.314   9.222
 7429W        W49440   5.069  21.134   2.662
 7430W        W49441  12.369   1.794   9.622
 7431W        W49442  19.919  16.974   0.828
 7432W        W49443  12.079  19.654   1.198
 7433W        W49444  19.849   0.934  10.292
 7434W        W49445  17.379  16.294   8.122
 7435W        W49446  16.629  14.354   0.668
 7436W        W49447  10.579   4.594   1.668
 7437W        W49448   4.169   8.594  15.622
 7438W        W49449  23.879  12.794   0.538
 7439W        W49450   1.199  20.244   2.318
 7440W        W49451   0.709  23.931   0.988
 7441W        W49452  14.269   1.194  10.932
 7442W        W49453   6.969  22.981  10.222
 7443W        W49454   4.729   7.014  15.322
 7444W        W49455  24.929  21.054  11.672
 7445W        W49456   5.319  15.154   8.112
 7446W        W49457   4.489  21.024   2.298
 7447W        W49458  20.599  23.711   1.308
 7448W        W49459  17.659  22.581  15.672
 7449W        W49460   6.539  13.344   0.668
 7450W        W49461  17.459  21.284   8.412
 7451W        W49462  12.129   8.404   9.902
 7452W        W49463  22.229   6.334   2.612
 7453W        W49464  20.519  23.811   9.782
 7454W        W49465   9.439  11.584   2.912
 7455W        W49466   4.889   0.124   8.802
 7456W        W49467   3.889   9.644  10.952
 7457W        W49468  16.599  15.554  14.732
 7458W        W49469  24.739  24.931  12.282
 7459W        W49470   2.099  17.464   7.962
 7460W        W49471   3.019  25.181   0.168
 7461W        W49472  13.249   8.654   8.802
 7462W        W49473  18.009  24.011  10.622
 7463W        W49474  25.579  11.814   2.842
 7464W        W49475   9.419  20.324   9.382
 7465W        W49476  14.339   5.224   0.648
 7466W        W49477  20.179  17.864  10.162
 7467W        W49478  22.529   2.884   7.592
 7468W        W49479  21.149  10.394  11.012
 7469W        W49480  16.729   6.614   2.248
 7470W        W49481   4.409  21.254  11.842
 7471W        W49482  11.159  18.304   2.378
 7472W        W49483   4.419  22.271   3.482
 7473W        W49484  18.479   3.084   8.472
 7474W        W49485   1.939  24.641   0.628
 7475W        W49486   5.269  14.804   2.038
 7476W        W49487   0.229  14.784  10.202
 7477W        W49488  16.329  15.214   2.892
 7478W        W49489  16.379   1.474   2.672
 7479W        W49490   5.139   2.504   8.262
 7480W        W49491  13.989  10.894   0.888
 7481W        W49492  15.279   3.784  10.942
 7482W        W49493  12.659  15.314  10.712
 7483W        W49494  19.889  13.964   1.718
 7484W        W49495  21.949  10.154   1.518
 7485W        W49496  23.209  11.734   3.592
 7486W        W49497  24.519   3.844  11.572
 7487W        W49498  24.989  14.904   3.312
 7488W        W49499   6.969   1.154  10.252
 7489W        W49500   4.979  23.101   7.852
 7490W        W49501  18.729   6.334   4.712
 7491W        W49502   7.339  16.044   2.962
 7492W        W49503   2.899  11.814   9.502
 7493W        W49504   5.339  25.251   2.488
 7494W        W49505   6.849   7.684   8.532
 7495W        W49506   8.769   5.894   2.128
 7496W        W49507  11.589  21.324   3.992
 7497W        W49508  22.929  13.874   1.028
 7498W        W49509  21.089  24.351   1.918
 7499W        W49510  17.229  10.314   8.462
 7500W        W49511  13.549  13.204   1.618
 7501W        W49512   4.369   7.084  10.622
 7502W        W49513  21.759  16.574   1.608
 7503W        W49514   6.519  23.631   8.282
 7504W        W49515  20.559  25.361   1.468
 7505W        W49516   7.229   9.514   9.452
 7506W        W49517   2.009  19.634   2.298
 7507W        W49518   1.239   1.284   1.298
 7508W        W49519  16.649   6.214   9.132
 7509W        W49520  10.749  12.394  15.202
 7510W        W49521  24.999  10.504   2.048
 7511W        W49522  20.529   8.264   0.598
 7512W        W49523   7.439  21.104   3.442
 7513W        W49524   3.339  23.201   0.678
 7514W        W49525  11.519  14.334   3.712
 7515W        W49526  11.109   8.184   9.012
 7516W        W49527   3.329   1.554   6.932
 7517W        W49528   1.269   1.804   8.962
 7518W        W49529  24.749  13.274   7.922
 7519W        W49530  10.369   4.574   3.822
 7520W        W49531   8.939  19.164   3.052
 7521W        W49532  23.719   0.224   3.322
 7522W        W49533   0.869  10.554   8.262
 7523W        W49534   8.419   0.854  11.002
 7524W        W49535  11.349  21.611   0.568
 7525W        W49536  23.159  23.841  11.522
 7526W        W49537  22.879  10.624   0.368
 7527W        W49538  12.309   6.964   0.178
 7528W        W49539  24.989   4.524   3.262
 7529W        W49540  20.299   5.374  15.462
 7530W        W49541  10.869   3.854   3.922
 7531W        W49542   6.349  17.674   1.518
 7532W        W49543  20.449   8.404   2.398
 7533W        W49544  11.339   8.664   2.522
 7534W        W49545   8.169  16.924   3.812
 7535W        W49546   7.629   9.274   9.272
 7536W        W49547   9.629  10.124   3.062
 7537W        W49548  12.749   8.844  15.512
 7538W        W49549   3.019  21.234   2.278
 7539W        W49550  12.729   1.904   9.292
 7540W        W49551  11.139  15.164   8.542
 7541W        W49552  16.749  16.384   1.448
 7542W        W49553  18.559   0.574   8.552
 7543W        W49554   3.979   8.104   0.668
 7544W        W49555   1.399  11.214   1.848
 7545W        W49556   8.389   3.864   0.378
 7546W        W49557  23.089  12.704  10.222
 7547W        W49558  18.979   3.234  11.242
 7548W        W49559  22.499   1.694  11.102
 7549W        W49560  13.649  25.191   3.772
 7550W        W49561  17.979  21.254   9.752
 7551W        W49562  24.049  17.994  11.752
 7552W        W49563   5.539   5.084   7.922
 7553W        W49564   2.409   5.774  15.572
 7554W        W49565  12.079   2.354  15.372
 7555W        W49566   3.179   4.644   2.108
 7556W        W49567  24.249   8.664  10.672
 7557W        W49568  19.869  19.014  12.082
 7558W        W49569  23.879   6.134  10.362
 7559W        W49570  11.969  20.824   1.808
 7560W        W49571   6.909  20.284   9.592
 7561W        W49572  12.719   4.324   0.728
 7562W        W49573  13.009  16.004  10.382
 7563W        W49574  20.519  10.734  10.232
 7564W        W49575  25.229  21.891   3.732
 7565W        W49576  11.859   6.504   1.078
 7566W        W49577  19.059  18.174   9.892
 7567W        W49578  12.029  14.994  10.162
 7568W        W49579  10.259   9.304   3.092
 7569W        W49580  10.709  24.091   7.862
 7570W        W49581  16.269  23.031   3.402
 7571W        W49582  14.719  20.754   1.438
 7572W        W49583  24.469  12.444   3.662
 7573W        W49584   7.119  15.524  10.412
 7574W        W49585   9.929   8.634   0.918
 7575W        W49586  17.899   4.594  10.212
 7576W        W49587  23.999   7.314   0.478
 7577W        W49588   5.629   1.514   9.932
 7578W        W49589  24.849  17.784  10.152
 7579W        W49590  25.109   5.924   0.508
 7580W        W49591  23.969   7.844   9.262
 7581W        W49592  22.559  24.911   2.208
 7582W        W49593  19.509  23.391  10.822
 7583W        W49594  18.679  21.421  12.372
 7584W        W49595  24.949   5.954  10.002
 7585W        W49596  17.249  19.944  10.042
 7586W        W49597  13.729   3.544   0.908
 7587W        W49598   5.719  19.034   3.562
 7588W        W49599   1.019  25.041   1.648
 7589W        W49600  25.059  18.314   8.472
 7590W        W49601  14.459  13.504   9.812
 7591W        W49602   3.119  21.004  10.412
 7592W        W49603  14.369   7.334  14.282
 7593W        W49604   0.209   4.494   7.672
 7594W        W49605  22.799   6.644   9.592
 7595W        W49606  21.179  14.564  10.722
 7596W        W49607   8.039   1.334  14.952
 7597W        W49608  17.909  12.224   0.908
 7598W        W49609  17.349  12.554   0.038
 7599W        W49610   5.629  10.494   8.272
 7600W        W49611   5.619   3.644   8.302
 7601W        W49612  15.089   8.064   9.782
 7602W        W49613   1.259   9.904  11.482
 7603W        W49614  15.479  23.601   0.768
 7604W        W49615  15.979   3.294   9.012
 7605W        W49616  23.279  12.424  10.672
 7606W        W49617  25.279   4.124   9.282
 7607W        W49618   9.269  22.761   3.722
 7608W        W49619  18.949  19.734   8.812
 7609W        W49620  11.819  16.524   3.812
 7610W        W49621  24.039   4.614  15.642
 7611W        W49622   2.489  17.064   3.112
 7612W        W49623   1.099  19.724   9.472
 7613W        W49624   3.769   8.974  15.422
 7614W        W49625   1.549  11.074   9.842
 7615W        W49626  18.549   2.784   0.508
 7616W        W49627  13.649   1.794   8.802
 7617W        W49628  17.119  23.801   0.158
 7618W        W49629  12.209  12.444   4.112
 7619W        W49630  20.879   3.814   8.702
 7620W        W49631   1.009   9.104   3.222
 7621W        W49632  11.159   1.174   9.172
 7622W        W49633  10.349   5.044   2.782
 7623W        W49634  22.759  23.691   9.792
 7624W        W49635  13.629  25.491   0.298
 7625W        W49636   2.699  14.214  10.322
 7626W        W49637   2.269  22.121  11.322
 7627W        W49638  23.509   2.774  11.152
 7628W        W49639  20.729   7.454   8.192
 7629W        W49640  21.879  16.434  10.892
 7630W        W49641   5.949   3.744  10.622
 7631W        W49642   8.849  15.844   1.158
 7632W        W49643  10.699   4.834   9.242
 7633W        W49644  25.129  25.191   8.552
 7634W        W49645  22.099   4.064   0.018
 7635W        W49646  14.269  12.434   4.632
 7636W        W49647  22.259  18.514   3.572
 7637W        W49648  16.259   0.554  11.652
 7638W        W49649   5.349  16.364   2.108
 7639W        W49650   9.429  17.374   0.368
 7640W        W49651   4.079  18.384   8.462
 7641W        W49652  19.989  23.541   1.448
 7642W        W49653   5.649   4.354   0.668
 7643W        W49654   7.299  20.544   1.438
 7644W        W49655  21.529  13.534   2.772
 7645W        W49656   7.199  22.541  10.212
 7646W        W49657  11.229   7.394  14.802
 7647W        W49658  25.559  17.484  11.582
 7648W        W49659  21.619   9.674   0.798
 7649W        W49660  11.249   0.074   0.638
 7650W        W49661  11.689  11.124   2.388
 7651W        W49662   9.299   4.144   2.882
 7652W        W49663  11.789  18.484  14.512
 7653W        W49664   7.059  15.624   2.882
 7654W        W49665  20.429   7.114   1.288
 7655W        W49666   5.249   6.574   0.808
 7656W        W49667   2.799  17.494  11.722
 7657W        W49668  11.859  11.304  15.852
 7658W        W49669  11.879  10.064   4.302
 7659W        W49670  14.669  14.524   8.952
 7660W        W49671  18.489  15.884  10.822
 7661W        W49672  14.239  19.994  15.782
 7662W        W49673   3.809   5.134   8.722
 7663W        W49674  16.339  12.464   4.052
 7664W        W49675   1.049  19.704  10.472
 7665W        W49676  20.099  15.624   8.462
 7666W        W49677  20.219  21.931  15.742
 7667W        W49678   1.309   1.024   7.652
 7668W        W49679   2.229   7.744   9.352
 7669W        W49680  15.979  20.774   3.762
 7670W        W49681   2.739  22.831   2.478
 7671W        W49682  13.749  17.174   0.098
 7672W        W49683   5.399  22.671  10.082
 7673W        W49684   2.929   9.184   9.012
 7674W        W49685   9.939   8.724  15.012
 7675W        W49686   7.679  24.011  14.992
 7676W        W49687  15.479   3.654   3.382
 7677W        W49688  11.929  12.914   4.242
 7678W        W49689   0.189  15.334   8.082
 7679W        W49690  18.589  15.644   3.072
 7680W        W49691  22.839   6.814   8.362
 7681W        W49692  15.679  18.184   9.402
 7682W        W49693   8.859  17.814   8.732
 7683W        W49694  11.609   3.964   2.832
 7684W        W49695  11.709   6.124   0.768
 7685W        W49696  23.909   6.134   0.738
 7686W        W49697  15.209   6.104   1.128
 7687W        W49698  17.439   5.334   1.998
 7688W        W49699   9.529   9.434   3.802
 7689W        W49700  17.819  18.224  10.052
 7690W        W49701   2.719  25.131   8.832
 7691W        W49702  18.709  23.121   7.882
 7692W        W49703  13.079  24.801   9.392
 7693W        W49704  24.529   7.924   2.842
 7694W        W49705   3.279  19.294  10.202
 7695W        W49706   4.979   3.634  10.712
 7696W        W49707  20.109   6.104   0.198
 7697W        W49708   8.059  24.881   0.078
 7698W        W49709   8.239   2.774   7.982
 7699W        W49710  20.869  17.934   2.792
 7700W        W49711  14.729   8.504   1.068
 7701W        W49712  14.259  14.254   5.372
 7702W        W49713  25.329   8.134   8.942
 7703W        W49714  23.009   1.114  11.842
 7704W        W49715  12.279   8.524   3.072
 7705W        W49716   0.269   6.194   8.762
 7706W        W49717  11.139  20.544  10.092
 7707W        W49718   9.629  12.724   3.682
 7708W        W49719  20.579   6.754   1.658
 7709W        W49720  25.469  23.651   2.872
 7710W        W49721  18.369   5.624   1.928
 7711W        W49722  25.229   8.224   9.742
 7712W        W49723  13.429   4.044   0.548
 7713W        W49724  22.729   4.234  15.222
 7714W        W49725   7.039   7.554   0.048
 7715W        W49726  14.379   3.424   4.712
 7716W        W49727  12.059   4.354   1.458
 7717W        W49728  11.109   1.244  10.542
 7718W        W49729  18.309  11.834  15.402
 7719W        W49730   3.669   2.824   7.822
 7720W        W49731   3.239  21.591  10.202
 7721W        W49732   0.599   7.384   1.058
 7722W        W49733  18.519   6.704   4.352
 7723W        W49734   5.229  22.351   8.682
 7724W        W49735   2.419  15.834   0.608
 7725W        W49736   7.989   2.814  14.292
 7726W        W49737  19.399  14.184   8.422
 7727W        W49738  12.199   2.694   1.958
 7728W        W49739  19.229   1.984  10.022
 7729W        W49740  12.049   0.244   0.148
 7730W        W49741  13.239   0.904   1.298
 7731W        W49742   8.119  13.764   4.162
 7732W        W49743  22.869   8.884   7.842
 7733W        W49744  14.289   1.284   8.932
 7734W        W49745  18.699  22.781  11.972
 7735W        W49746  12.709  12.774   0.378
 7736W        W49747   9.749   3.404  15.612
 7737W        W49748  23.749  25.481   9.172
 7738W        W49749   2.499  10.504   1.438
 7739W        W49750   5.629  15.404  10.252
 7740W        W49751  10.699   8.154  11.282
 7741W        W49752  14.039  22.481   0.268
 7742W        W49753  20.839   2.114   0.848
 7743W        W49754  20.159  19.664   2.018
 7744W        W49755  12.319  16.754   8.812
 7745W        W49756   2.379  16.174  10.602
 7746W        W49757  20.589  15.544   2.258
 7747W        W49758  19.479  19.414   3.232
 7748W        W49759  20.819  20.664  10.882
 7749W        W49760   0.649   1.164   9.202
 7750W        W49761  23.109  18.474   9.442
 7751W        W49762   3.489  17.304  11.282
 7752W        W49763  22.199  11.084   9.782
 7753W        W49764   2.719  19.614   0.208
 7754W        W49765  17.849  15.964  11.192
 7755W        W49766  13.779  11.544   4.002
 7756W        W49767  18.109  23.861   3.702
 7757W        W49768  13.249  24.941   0.798
 7758W        W49769  15.999  20.834  10.962
 7759W        W49770  14.269  14.904   1.548
 7760W        W49771   1.329  14.194   0.788
 7761W        W49772  12.229   0.774   9.982
 7762W        W49773   8.189   1.354   9.002
 7763W        W49774  13.739  16.244   8.962
 7764W        W49775   8.839   5.324  15.402
 7765W        W49776  12.279  14.414   3.402
 7766W        W49777  25.409  12.194   9.372
 7767W        W49778   3.939   5.884   1.008
 7768W        W49779   3.309   4.004  10.792
 7769W        W49780   4.399  20.244   3.082
 7770W        W49781  14.809  11.284  10.012
 7771W        W49782  22.059   7.174   0.078
 7772W        W49783  19.219  11.214  10.982
 7773W        W49784  21.629  19.594   2.428
 7774W        W49785  10.559  24.681   2.832
 7775W        W49786  21.429  25.211  12.582
 7776W        W49787   6.609   4.284   0.778
 7777W        W49788  19.219  23.841   7.982
 7778W        W49789  20.059  13.474   7.232
 7779W        W49790  18.049  21.284   8.732
 7780W        W49791  18.739   8.524  14.342
 7781W        W49792  15.909  22.241  10.532
 7782W        W49793  14.019  11.264   4.802
 7783W        W49794  23.709  23.561   4.072
 7784W        W49795   1.499   5.734   7.902
 7785W        W49796   0.679  18.314   9.722
 7786W        W49797  16.729  19.814   1.168
 7787W        W49798   4.429  10.654  10.452
 7788W        W49799   9.779   8.574   2.742
 7789W        W49800   1.329  14.894  15.542
 7790W        W49801   9.789   2.884   9.312
 7791W        W49802  25.469  20.984   3.132
 7792W        W49803   5.499  10.784   9.402
 7793W        W49804  11.279  21.244   0.968
 7794W        W49805  20.009  19.914  11.582
 7795W        W49806   3.799   6.234   6.722
 7796W        W49807   0.419  10.804   8.322
 7797W        W49808  15.919   0.584   3.852
 7798W        W49809  14.159   6.914   9.292
 7799W        W49810   4.029  17.104   2.228
 7800W        W49811  21.249  17.274  15.672
 7801W        W49812  12.089   6.544   9.152
 7802W        W49813  14.009   6.954   0.038
 7803W        W49814   2.189  25.401   9.352
 7804W        W49815   0.979  21.284   8.622
 7805W        W49816   9.199  15.754   2.592
 7806W        W49817  23.779   7.054  10.802
 7807W        W49818  19.189   0.894  11.432
 7808W        W49819  20.059  24.601  11.832
 7809W        W49820   4.459  17.904   8.722
 7810W        W49821   8.839  23.721  10.472
 7811W        W49822   6.129  15.464   9.192
 7812W        W49823   1.739  16.824   8.902
 7813W        W49824  22.549  10.234   8.242
 7814W        W49825   5.599  15.194   2.248
 7815W        W49826  20.739   8.684   0.148
 7816W        W49827  19.619  14.274   7.882
 7817W        W49828  17.009  24.391  11.632
 7818W        W49829  21.039   1.634   8.092
 7819W        W49830   9.419  13.924   2.872
 7820W        W49831   2.429   4.674  15.662
 7821W        W49832   6.469  13.314  15.382
 7822W        W49833   6.119   7.224   1.668
 7823W        W49834  15.629   3.214   3.852
 7824W        W49835  15.499  24.161   3.202
 7825W        W49836   7.009   5.344   9.312
 7826W        W49837  19.629   5.714   8.862
 7827W        W49838   7.189  24.521   4.012
 7828W        W49839  20.499   2.674   7.632
 7829W        W49840  17.849  16.394   9.062
 7830W        W49841  13.379  16.884  14.822
 7831W        W49842  11.109   1.924   9.252
 7832W        W49843   4.129  23.781   8.082
 7833W        W49844   7.089  17.354   2.622
 7834W        W49845   8.939   5.864  11.452
 7835W        W49846  15.879  13.464   0.238
 7836W        W49847   8.049  18.714   0.278
 7837W        W49848  24.919  16.894   9.702
 7838W        W49849  10.289   9.354  10.102
 7839W        W49850  14.939  18.734   3.272
 7840W        W49851  20.899  21.851   7.512
 7841W        W49852   5.889  22.041   1.288
 7842W        W49853  17.529  16.014   4.082
 7843W        W49854  10.719  17.204   2.992
 7844W        W49855  18.469  13.624   2.862
 7845W        W49856  24.569  12.934   8.872
 7846W        W49857  12.699  10.994   1.638
 7847W        W49858   3.819   4.214   8.252
 7848W        W49859  18.329  13.434  15.522
 7849W        W49860   5.629  12.774  14.612
 7850W        W49861  22.399  18.804   3.202
 7851W        W49862   6.419  19.944   1.708
 7852W        W49863   7.189  18.654   2.792
 7853W        W49864   2.049  14.214   2.552
 7854W        W49865  20.219   1.114   9.222
 7855W        W49866   3.449  11.784  11.472
 7856W        W49867   3.799   2.134   1.058
 7857W        W49868  18.629   7.054   1.918
 7858W        W49869  13.279  10.334  14.742
 7859W        W49870   0.809  11.174  10.662
 7860W        W49871  18.359   3.004   9.332
 7861W        W49872   8.309  21.334   1.038
 7862W        W49873  19.899  22.091   3.222
 7863W        W49874   5.369   6.294   8.002
 7864W        W49875  11.239   6.634  15.572
 7865W        W49876   1.269  22.601   3.752
 7866W        W49877   9.959  24.621   3.122
 7867W        W49878   2.809   6.884  10.802
 7868W        W49879   6.799  17.124  10.412
 7869W        W49880   7.089  17.784   2.872
 7870W        W49881  24.939  11.354   9.512
 7871W        W49882   0.879   9.044   2.682
 7872W        W49883  17.689  10.144   1.778
 7873W        W49884  13.109  24.171   8.742
 7874W        W49885  12.889   3.524  14.192
 7875W        W49886   7.599   2.254   2.368
 7876W        W49887   7.839  19.044  14.842
 7877W        W49888   5.969  24.391   0.688
 7878W        W49889  11.949  13.074  14.502
 7879W        W49890   3.019   8.974   8.562
 7880W        W49891  17.529  19.364  10.602
 7881W        W49892  13.199  10.234   3.252
 7882W        W49893  20.589   6.214   1.918
 7883W        W49894   3.679  21.324   3.562
 7884W        W49895  17.389  21.721   0.958
 7885W        W49896  18.819  22.051   1.248
 7886W        W49897  17.899  23.081   2.712
 7887W        W49898  18.149  12.374   9.662
 7888W        W49899  16.089   1.844   2.058
 7889W        W49900  23.569   9.444  10.252
 7890W        W49901  16.649  14.634   1.128
 7891W        W49902   8.989   3.724   2.188
 7892W        W49903  18.289  12.924  15.752
 7893W        W49904  18.089   3.234   3.782
 7894W        W49905   6.389   4.414  14.252
 7895W        W49906  20.469   7.634   1.168
 7896W        W49907   6.159   3.974   9.522
 7897W        W49908   1.609  12.144   0.758
 7898W        W49909   2.079  25.161   0.628
 7899W        W49910   9.699   0.504  15.752
 7900W        W49911  10.909   7.094  15.672
 7901W        W49912  22.589  12.784  10.462
 7902W        W49913  22.739   6.804   0.498
 7903W        W49914  23.839  10.454  11.442
 7904W        W49915  21.579  16.934   1.988
 7905W        W49916   7.989  19.524  14.952
 7906W        W49917  24.299  17.424   2.522
 7907W        W49918  21.299  19.254   9.992
 7908W        W49919   6.319  24.121   8.402
 7909W        W49920   9.899  12.734   4.182
 7910W        W49921   7.839  12.844   8.792
 7911W        W49922  22.409  17.764  12.382
 7912W        W49923  20.659  11.294   7.792
 7913W        W49924  14.199   3.554   1.808
 7914W        W49925   6.879  14.164  14.922
 7915W        W49926  24.149  12.514  15.442
 7916W        W49927   4.569   3.714  15.792
 7917W        W49928  15.639  12.684   3.002
 7918W        W49929   5.949  10.834   3.122
 7919W        W49930   8.989  20.494  10.362
 7920W        W49931  11.769  22.021   8.602
 7921W        W49932  21.209  20.174   2.692
 7922W        W49933   2.079  12.794   9.542
 7923W        W49934   2.449  22.451   1.148
 7924W        W49935  20.889   1.924  10.702
 7925W        W49936   2.589  15.114   7.732
 7926W        W49937   2.889   2.474   0.898
 7927W        W49938  14.959   1.544  15.862
 7928W        W49939   0.429   5.254   9.432
 7929W        W49940  23.279  24.851   2.922
 7930W        W49941   7.339  12.594   7.902
 7931W        W49942  11.059  20.644   2.068
 7932W        W49943  15.459   2.794   1.078
 7933W        W49944  10.749   1.214   1.318
 7934W        W49945   4.539   9.234   2.058
 7935W        W49946   5.449  10.034   3.532
 7936W        W49947  11.439  15.084   1.038
 7937W        W49948  13.009  23.351  15.232
 7938W        W49949   6.219  10.254  11.322
 7939W        W49950  16.649   2.434  15.542
 7940W        W49951   5.599   1.444   8.002
 7941W        W49952   9.999  15.304   8.562
 7942W        W49953  23.279  10.104   1.748
 7943W        W49954   2.739   4.974   2.238
 7944W        W49955  16.779  14.164   2.388
 7945W        W49956  13.099  18.764   8.752
 7946W        W49957   4.299  19.294   3.682
 7947W        W49958   6.989   5.044  15.102
 7948W        W49959   7.359  14.994   4.372
 7949W        W49960   3.489  14.594   1.628
 7950W        W49961  20.509   4.524  15.222
 7951W        W49962  19.999  16.874  15.172
 7952W        W49963   9.699  10.954   0.088
 7953W        W49964   8.629   0.594   4.302
 7954W        W49965  10.969  23.361  15.722
 7955W        W49966  22.579  16.254   3.642
 7956W        W49967   8.429  10.304  15.592
 7957W        W49968  24.869  21.154   8.642
 7958W        W49969   8.019   0.734   0.718
 7959W        W49970  15.879   6.124   9.502
 7960W        W49971  12.229   2.064   1.768
 7961W        W49972  10.839   1.714   2.772
 7962W        W49973  15.859  15.924   0.108
 7963W        W49974   5.679   5.944   9.142
 7964W        W49975   4.499  18.894   8.802
 7965W        W49976  11.939  14.354  14.792
 7966W        W49977  25.349  15.344   2.522
 7967W        W49978  25.059  22.231  11.582
 7968W        W49979  13.859  17.504   8.972
 7969W        W49980  14.579  16.944  15.642
 7970W        W49981   6.809  23.331   0.598
 7971W        W49982  20.439   3.084  15.202
 7972W        W49983  15.949  13.744   9.852
 7973W        W49984  21.079  17.744  12.632
 7974W        W49985  20.649  13.414   1.828
 7975W        W49986   3.009  13.214   2.512
 7976W        W49987  17.589   0.524   8.082
 7977W        W49988   6.769  14.044   9.502
 7978W        W49989   3.899  22.321   0.568
 7979W        W49990  21.229  22.111  12.412
 7980W        W49991  15.789  16.354   9.312
 7981W        W49992  10.749  18.754   3.472
 7982W        W49993  13.699   7.914   3.572
 7983W        W49994   1.519  16.554   0.678
 7984W        W49995  20.239  10.844   9.832
 7985W        W49996   2.469  25.421   0.358
 7986W        W49997  20.619  14.384   0.338
 7987W        W49998   7.419  15.494   8.602
 7988W        W49999  19.249  15.134   3.742
 7989W        W50000   7.059  19.064   4.072
 7990W        W50001   3.069  17.324  10.102
 7991W        W50002   1.769  24.861   3.572
 7992W        W50003  15.949  18.724   8.422
 7993W        W50004  20.559  24.861  11.802
 7994W        W50005   0.709   0.664   3.362
 7995W        W50006  15.639  15.314  15.642
 7996W        W50007   6.039  10.014   9.402
 7997W        W50008   1.439  14.964   8.972
 7998W        W50009  20.409  17.704  10.552
 7999W        W50010  12.809   7.684   1.368
 8000W        W50011  22.499   5.314   2.008
 8001W        W50012   2.879   5.574  15.602
 8002W        W50013   3.619   7.914  10.192
 8003W        W50014  10.659   8.804  14.812
 8004W        W50015  13.489   0.514  15.742
 8005W        W50016  18.519  18.784   8.062
 8006W        W50017  16.139  17.374   9.492
 8007W        W50018   2.749  24.681   9.042
 8008W        W50019  22.679   8.004  10.832
 8009W        W50020   0.269   4.464  11.612
 8010W        W50021  12.169   4.744  10.392
 8011W        W50022   9.059  15.324   9.582
 8012W        W50023   2.339  24.091  11.292
 8013W        W50024   0.389   3.834   9.752
 8014W        W50025  24.539  16.054   7.562
 8015W        W50026  23.369   5.934  10.532
 8016W        W50027  13.259   3.074   3.472
 8017W        W50028  21.549  17.374  10.742
 8018W        W50029  12.729   6.244   2.792
 8019W        W50030   4.719   3.294  10.352
 8020W        W50031  16.719  10.254   9.772
 8021W        W50032  25.149  11.034  15.402
 8022W        W50033  22.519   3.934  15.682
 8023W        W50034  11.239  22.421   9.822
 8024W        W50035  23.719  16.064  11.562
 8025W        W50036  23.749   9.314   1.508
 8026W        W50037  19.999  25.461  12.742
 8027W        W50038  22.499  18.954  10.592
 8028W        W50039   3.949  16.374  15.502
 8029W        W50040   8.949  17.394   3.802
 8030W        W50041  25.489   2.644   0.608
 8031W        W50042  17.679  18.724   9.362
 8032W        W50043  10.109   1.974   2.358
 8033W        W50044  16.789   8.344  15.702
 8034W        W50045  11.099  25.471   3.172
 8035W        W50046   0.859   2.314  15.722
 8036W        W50047  17.799  15.704  10.832
 8037W        W50048   2.829   4.314   8.592
 8038W        W50049  11.459   8.974   9.192
 8039W        W50050  13.049   5.304   9.382
 8040W        W50051   2.219   6.064   3.512
 8041W        W50052   5.439  17.354  11.232
 8042W        W50053  22.489  22.821  10.992
 8043W        W50054   4.739  14.354   0.768
 8044W        W50055  23.579   7.824   9.962
 8045W        W50056   7.969  16.664   3.452
 8046W        W50057   5.149  18.794  15.562
 8047W        W50058  19.799   7.094  10.822
 8048W        W50059  12.899   7.574  15.162
 8049W        W50060  14.279   7.724   2.128
 8050W        W50061  20.799  18.764  11.242
 8051W        W50062  21.089   9.824   7.632
 8052W        W50063   0.629  12.404   2.542
 8053W        W50064  22.669  18.954   9.192
 8054W        W50065   2.939  13.444  15.562
 8055W        W50066  17.019  17.174   2.278
 8056W        W50067  20.309  15.824   0.658
 8057W        W50068   6.699  17.354   1.268
 8058W        W50069  22.219  14.044  11.722
 8059W        W50070  21.999  12.224  11.202
 8060W        W50071  18.839   1.394   2.188
 8061W        W50072  23.109   5.564   7.662
 8062W        W50073   0.659   2.694   9.222
 8063W        W50074   4.429  23.051  11.482
 8064W        W50075  13.649  23.691   9.022
 8065W        W50076  25.329  23.561   8.662
 8066W        W50077   8.949   2.624   8.492
 8067W        W50078  16.369  23.181   8.852
 8068W        W50079  14.799  10.954   2.912
 8069W        W50080  24.559  18.494   8.552
 8070W        W50081   2.019  10.344   1.288
 8071W        W50082  25.139   0.804   1.078
 8072W        W50083   6.859   5.984   2.238
 8073W        W50084  11.869  17.814   1.568
 8074W        W50085  10.359  10.574   9.792
 8075W        W50086   7.009   8.584  11.252
 8076W        W50087   7.939  15.684   1.128
 8077W        W50088   6.749  10.684   8.682
 8078W        W50089   8.329  16.324   2.762
 8079W        W50090  18.399  22.951   0.638
 8080W        W50091  21.679  17.624   2.702
 8081W        W50092   2.939  11.884   2.652
 8082W        W50093   6.219  16.844   4.352
 8083W        W50094  14.089   2.264   2.722
 8084W        W50095   4.959  17.474   0.248
 8085W        W50096  14.029   9.294   3.402
 8086W        W50097  22.639  10.634   7.922
 8087W        W50098  23.479  17.294  15.672
 8088W        W50099  22.289  20.094   3.002
 8089W        W50100   5.969   2.114   3.832
 8090W        W50101  11.879   2.794   0.438
 8091W        W50102   0.819   3.584   0.408
 8092W        W50103   4.989  14.934   9.982
 8093W        W50104  17.689  19.484   3.332
 8094W        W50105  11.239  19.124   1.288
 8095W        W50106  25.349  14.424   9.092
 8096W        W50107   9.269  19.504   3.332
 8097W        W50108  16.539   2.444   0.198
 8098W        W50109  22.479  10.954   2.562
 8099W        W50110  16.469   9.694   4.232
 8100W        W50111   2.949   9.164  15.122
 8101W        W50112  13.609   4.004   1.038
 8102W        W50113   7.279   9.044  14.552
 8103W        W50114   9.319   1.714   0.118
 8104W        W50115  24.429   6.104   1.398
 8105W        W50116   1.049  11.784   2.902
 8106W        W50117   3.779  19.674   3.192
 8107W        W50118   4.009  16.544  10.732
 8108W        W50119  13.119  14.484   3.862
 8109W        W50120   7.939  11.304  10.522
 8110W        W50121  19.929  12.994   3.152
 8111W        W50122  13.919  10.994  13.772
 8112W        W50123   4.049   0.534  10.802
 8113W        W50124  13.599  20.994   0.428
 8114W        W50125  12.479   5.154  10.332
 8115W        W50126  23.559  21.671  11.982
 8116W        W50127   2.659   3.154   2.922
 8117W        W50128   6.049  22.591   4.292
 8118W        W50129  22.899   6.084   1.808
 8119W        W50130  10.689  19.394   0.888
 8120W        W50131  12.279  22.011   4.402
 8121W        W50132  14.229  23.001   8.682
 8122W        W50133   4.379  18.404   7.982
 8123W        W50134  20.399  19.974  12.372
 8124W        W50135  21.289   1.724   9.432
 8125W        W50136  12.089  11.504   4.222
 8126W        W50137  24.529  19.444   2.652
 8127W        W50138   4.089  17.394   1.518
 8128W        W50139  16.809  16.324   9.712
 8129W        W50140   4.039   3.584   0.078
 8130W        W50141   0.569  14.944   0.678
 8131W        W50142  21.179  15.254   0.508
 8132W        W50143   4.109   8.704   7.512
 8133W        W50144  20.739   7.404  10.412
 8134W        W50145  21.769  15.024   0.398
 8135W        W50146  24.339  24.861   0.438
 8136W        W50147   4.039  21.391   7.942
 8137W        W50148   4.369   8.444  11.262
 8138W        W50149  12.159   9.424   2.812
 8139W        W50150  23.219   9.314  11.482
 8140W        W50151  19.249  21.831   0.078
 8141W        W50152   8.649  16.694  15.352
 8142W        W50153   7.719  19.354   0.608
 8143W        W50154  10.509   6.924  10.442
 8144W        W50155  20.929  20.164   9.522
 8145W        W50156  19.229   6.564   8.732
 8146W        W50157   3.199  23.051   2.622
 8147W        W50158   1.919  15.854   3.192
 8148W        W50159  19.779  24.411  12.232
 8149W        W50160   6.119  15.294   1.948
 8150W        W50161  15.949  16.194   3.652
 8151W        W50162   7.529  21.104   4.222
 8152W        W50163  16.279  13.084   1.458
 8153W        W50164  13.669  11.034   4.022
 8154W        W50165  22.009  22.051  11.072
 8155W        W50166  21.019   0.684   4.182
 8156W        W50167  17.779   3.164   3.082
 8157W        W50168  23.119  25.241   0.868
 8158W        W50169   0.519  22.371   1.948
 8159W        W50170   9.179  25.381   0.178
 8160W        W50171   8.459  22.721   9.622
 8161W        W50172  15.679  10.874   0.748
 8162W        W50173   1.789  10.794   1.168
 8163W        W50174  11.199   5.004   9.212
 8164W        W50175   2.149   7.634   2.048
 8165W        W50176  20.259  16.114   7.762
 8166W        W50177  22.909  17.254  10.352
 8167W        W50178   0.749  19.774   1.258
 8168W        W50179  19.219   3.914   9.242
 8169W        W50180   5.009  12.554   2.742
 8170W        W50181  16.929  23.121   0.788
 8171W        W50182  13.069  18.734   9.752
 8172W        W50183  10.369   4.704   4.722
 8173W        W50184  13.309  15.694   9.462
 8174W        W50185  17.359  13.554  10.012
 8175W        W50186  20.549   1.744   0.598
 8176W        W50187   4.439  22.951   9.142
 8177W        W50188  17.099  22.911   3.952
 8178W        W50189   7.189   1.564   2.922
 8179W        W50190   6.829  18.914   8.332
 8180W        W50191   3.609  15.014   7.702
 8181W        W50192  10.569  20.324   3.402
 8182W        W50193  21.119   7.314  15.192
 8183W        W50194  13.469  13.784  10.332
 8184W        W50195  15.809   1.144   9.682
 8185W        W50196   1.769  12.794   2.792
 8186W        W50197   8.469   6.734  10.582
 8187W        W50198  17.319   6.784   0.458
 8188W        W50199  14.919  17.434   3.012
 8189W        W50200  10.999  12.854  14.982
 8190W        W50201  10.689   9.124   9.872
 8191W        W50202  25.529   4.314   2.308
 8192W        W50203  24.859   9.684  10.262
 8193W        W50204   9.829   8.814  13.762
 8194W        W50205   9.599   9.904  13.932
 8195W        W50206  20.609  17.694   8.322
 8196W        W50207   3.689  14.384   9.352
 8197W        W50208  24.789  23.171   0.568
 8198W        W50209  11.579   2.084   9.202
 8199W        W50210  10.539  24.501   7.712
 8200W        W50211   2.909  15.504  11.162
 8201W        W50212  16.279   7.474   4.982
 8202W        W50213  16.039   4.204  10.282
 8203W        W50214  24.639  19.834   8.622
 8204W        W50215   1.999  21.571   1.298
 8205W        W50216   0.219  10.044   2.762
 8206W        W50217   4.759  13.184   9.112
 8207W        W50218  16.039  11.214  14.502
 8208W        W50219  17.929  24.991   8.052
 8209W        W50220   3.519  18.014   0.968
 8210W        W50221  15.689  12.394   0.518
 8211W        W50222   4.049   1.604   8.302
 8212W        W50223  22.279   4.444   9.922
 8213W        W50224   7.729  23.601   7.472
 8214W        W50225  21.009   7.264   0.948
 8215W        W50226  12.959   7.064   4.342
 8216W        W50227  11.929   8.004  14.172
 8217W        W50228   0.219  22.341   3.672
 8218W        W50229   4.919   0.744   7.712
 8219W        W50230  10.279  23.131  11.642
 8220W        W50231  20.139   9.134   1.728
 8221W        W50232   6.069  20.994   0.278
 8222W        W50233  17.069  11.244   3.882
 8223W        W50234  23.869   9.484   0.128
 8224W        W50235  22.849   6.584   1.928
 8225W        W50236   1.599   4.754   7.652
 8226W        W50237  18.149  23.521   9.032
 8227W        W50238   3.399  12.004   9.652
 8228W        W50239  18.909  25.561   9.732
 8229W        W50240   3.899  23.281   3.122
 8230W        W50241   1.279  21.451   1.978
 8231W        W50242  20.389   6.484   1.188
 8232W        W50243   7.709  23.881   8.592
 8233W        W50244  21.779  19.654   9.112
 8234W        W50245  10.759  16.734   2.602
 8235W        W50246   0.489  12.334   1.998
 8236W        W50247  20.279  24.681   9.612
 8237W        W50248   5.049   8.374  15.622
 8238W        W50249  19.819  25.531   0.778
 8239W        W50250  12.729  17.914  14.412
 8240W        W50251   1.459   8.854   1.568
 8241W        W50252  25.479   5.904  10.202
 8242W        W50253   9.119  23.161   8.112
 8243W        W50254  24.659   0.904   7.402
 8244W        W50255  19.679   3.724   3.572
 8245W        W50256  22.149  19.404   9.402
 8246W        W50257   2.119  15.994   3.682
 8247W        W50258  15.869   3.414  15.012
 8248W        W50259   0.339   1.864   2.972
 8249W        W50260   1.839  15.174  11.262
 8250W        W50261   0.459  17.044   2.992
 8251W        W50262  20.769  17.704  11.432
 8252W        W50263  13.219  25.511  10.592
 8253W        W50264   0.879   3.784  11.062
 8254W        W50265   3.659   2.424   8.472
 8255W        W50266  15.929   5.664   9.132
 8256W        W50267  24.349  15.314   3.002
 8257W        W50268  18.739  13.374   2.418
 8258W        W50269  10.089   4.754   0.888
 8259W        W50270   8.479   9.614  15.722
 8260W        W50271   2.459  15.534   0.168
 8261W        W50272  18.069   9.364   3.532
 8262W        W50273  13.799   8.784  15.062
 8263W        W50274  18.189  25.191  15.852
 8264W        W50275  18.939  21.951   8.992
 8265W        W50276  15.129   3.474   0.528
 8266W        W50277  16.189  14.294  10.932
 8267W        W50278  23.429   1.794   2.552
 8268W        W50279   5.839   3.344   2.532
 8269W        W50280   2.029   1.654   1.448
 8270W        W50281   7.819   4.474  10.192
 8271W        W50282   1.219  20.854   8.452
 8272W        W50283   2.449  21.074   4.312
 8273W        W50284   6.019  14.504  14.902
 8274W        W50285  19.309  11.664   2.922
 8275W        W50286  15.509  22.531   8.012
 8276W        W50287  19.379  10.494   7.812
 8277W        W50288   8.449   2.824   2.318
 8278W        W50289  25.419  23.351  11.182
 8279W        W50290  23.079  10.874   8.052
 8280W        W50291   1.479   7.534   0.468
 8281W        W50292   8.169  10.254   9.722
 8282W        W50293  13.529  21.004   2.378
 8283W        W50294   3.659  12.554   7.792
 8284W        W50295  16.409   2.144   8.862
 8285W        W50296  11.939   2.514  10.032
 8286W        W50297  18.549  14.674   8.322
 8287W        W50298  17.449   2.734   3.202
 8288W        W50299  17.959  17.774   9.192
 8289W        W50300   6.639  25.141  11.162
 8290W        W50301  22.079  21.461   9.682
 8291W        W50302  24.609  13.694  10.122
 8292W        W50303   5.239  20.434   3.752
 8293W        W50304   9.629  18.364  10.592
 8294W        W50305   4.609  22.721   0.638
 8295W        W50306   0.001  20.354   2.188
 8296W        W50307  18.609   8.834   0.128
 8297W        W50308  11.219  19.784   2.552
 8298W        W50309  23.929  13.974  15.732
 8299W        W50310  23.929  10.614   9.072
 8300W        W50311  11.419   0.624   9.972
 8301W        W50312  21.689   0.384   0.808
 8302W        W50313   1.319  13.274   7.462
 8303W        W50314  16.949  25.031   9.272
 8304W        W50315  18.299  21.371   1.038
 8305W        W50316  10.329   0.994   1.228
 8306W        W50317   0.069   0.394  15.482
 8307W        W50318   9.179  24.131  10.332
 8308W        W50319  19.629  17.594   1.788
 8309W        W50320  20.509  14.754   3.182
 8310W        W50321  18.869  20.564   1.118
 8311W        W50322  23.499  23.681   9.082
 8312W        W50323   4.579   6.414   1.778
 8313W        W50324  22.779  15.494   1.008
 8314W        W50325  24.059  21.831   2.872
 8315W        W50326   0.799  24.921   9.062
 8316W        W50327   1.549   6.704   9.032
 8317W        W50328  15.279  15.644   2.622
 8318W        W50329   9.769   0.024  14.832
 8319W        W50330  11.039  10.954  14.462
 8320W        W50331  10.149  17.874  15.782
 8321W        W50332  25.409   8.684   0.928
 8322W        W50333   6.259  18.524   9.122
 8323W        W50334   2.909   5.774   1.068
 8324W        W50335  11.419  23.661   8.762
 8325W        W50336  22.189  22.651  10.112
 8326W        W50337  12.599  19.434   2.962
 8327W        W50338  12.189  15.384  10.952
 8328W        W50339   1.669   5.284  10.132
 8329W        W50340   7.629   0.124   2.872
 8330W        W50341  10.979   5.534   8.552
 8331W        W50342  12.849  17.294   1.158
 8332W        W50343  15.259   1.564   4.772
 8333W        W50344  24.489  13.914   9.062
 8334W        W50345  12.609  17.784   0.588
 8335W        W50346   3.559   7.554   7.412
 8336W        W50347   5.639   0.654   0.338
 8337W        W50348   0.239  15.104   1.078
 8338W        W50349   8.759  17.824   7.702
 8339W        W50350  11.399  12.124   4.552
 8340W        W50351   6.689  24.131   7.392
 8341W        W50352   4.339  11.564   0.478
 8342W        W50353   3.159   0.254   9.602
 8343W        W50354  19.589   7.044   0.808
 8344W        W50355  13.979   4.514   8.962
 8345W        W50356  13.149   0.534   8.892
 8346W        W50357  14.499   3.834   8.402
 8347W        W50358   7.359  14.814   0.458
 8348W        W50359  11.749   9.704   3.032
 8349W        W50360  16.269  12.924   8.762
 8350W        W50361   3.069   8.754   0.478
 8351W        W50362  23.109   5.974   8.272
 8352W        W50363  11.779  19.114  10.352
 8353W        W50364  15.819  22.521   3.822
 8354W        W50365  13.699   8.674   2.952
 8355W        W50366  19.329   6.224   0.818
 8356W        W50367  12.769  19.154   8.982
 8357W        W50368   7.889  22.591   0.558
 8358W        W50369  15.209   0.524   0.568
 8359W        W50370  18.929  11.824  11.562
 8360W        W50371  15.519  16.914   2.952
 8361W        W50372   2.639  23.481   3.262
 8362W        W50373   3.409  13.714   8.242
 8363W        W50374   7.659   5.194   9.852
 8364W        W50375  15.509  21.411   9.852
 8365W        W50376   2.909  20.494  11.072
 8366W        W50377  18.579  12.604   1.788
 8367W        W50378  18.109  14.724   2.338
 8368W        W50379   0.859   3.784  11.752
 8369W        W50380  18.669   5.944   0.768
 8370W        W50381   2.239  24.881  10.962
 8371W        W50382  14.559   8.424  15.622
 8372W        W50383  20.579  18.684   0.408
 8373W        W50384  14.669   9.104   3.942
 8374W        W50385   6.089   8.584   2.028
 8375W        W50386   9.299  11.004   2.088
 8376W        W50387  19.249  17.704   8.802
 8377W        W50388  19.999  13.574   4.022
 8378W        W50389  10.399   7.964   4.302
 8379W        W50390  22.749  16.784  10.392
 8380W        W50391   0.749  17.074   8.932
 8381W        W50392   4.569  23.141   3.312
 8382W        W50393  19.779   6.874  11.672
 8383W        W50394   8.999  20.604   3.322
 8384W        W50395  22.939   4.174   2.208
 8385W        W50396   6.929  22.231  11.272
 8386W        W50397   6.959  12.824  11.272
 8387W        W50398  24.009  11.374   0.428
 8388W        W50399  16.329  18.284   8.282
 8389W        W50400  14.069   5.244   1.778
 8390W        W50401   4.139  15.134   9.442
 8391W        W50402   1.109  14.944  10.812
 8392W        W50403  22.259   3.684   2.812
 8393W        W50404  24.219  19.344   3.042
 8394W        W50405  24.289  15.464  10.702
 8395W        W50406  24.839  21.154   9.922
 8396W        W50407   8.339  13.004  14.882
 8397W        W50408  13.109  14.964  15.392
 8398W        W50409  23.079  21.841   2.642
 8399W        W50410  11.369  11.344  15.602
 8400W        W50411  23.759  23.511   1.928
 8401W        W50412  24.919  20.284  10.912
 8402W        W50413  13.899   5.604   9.182
 8403W        W50414  11.499  14.434   9.112
 8404W        W50415   4.779  10.904   8.642
 8405W        W50416   1.789   9.674   0.298
 8406W        W50417  20.159   0.034  12.242
 8407W        W50418  22.359  24.131  10.472
 8408W        W50419   0.389  23.531   7.322
 8409W        W50420   5.989  18.284   4.062
 8410W        W50421  18.149   6.564   1.928
 8411W        W50422   8.859  23.551   9.962
 8412W        W50423   0.769  22.451   0.338
 8413W        W50424  24.099  13.744   1.328
 8414W        W50425   7.699   4.534  14.742
 8415W        W50426  23.519  18.054  10.512
 8416W        W50427   6.509  24.151   3.352
 8417W        W50428  18.429   0.284  10.462
 8418W        W50429   2.449   5.334   9.082
 8419W        W50430  16.019  17.084   0.358
 8420W        W50431  21.449   4.444   8.752
 8421W        W50432  18.249   0.844  10.462
 8422W        W50433  14.889   1.404   9.332
 8423W        W50434  24.529   4.484  10.842
 8424W        W50435  11.379   6.274   3.652
 8425W        W50436   6.889  10.544   8.182
 8426W        W50437  11.539  22.861   1.408
 8427W        W50438   1.339   8.684   8.482
 8428W        W50439   5.769  19.744   9.092
 8429W        W50440  16.759  16.884   1.118
 8430W        W50441  18.679  22.901   9.772
 8431W        W50442  16.769  14.394  10.112
 8432W        W50443   8.659  16.244   9.872
 8433W        W50444  12.909  14.044   3.842
 8434W        W50445  24.819  15.224   9.802
 8435W        W50446  22.769  11.144   2.128
 8436W        W50447  20.909  21.981   8.062
 8437W        W50448  16.279  22.611   4.202
 8438W        W50449  11.739  24.791   0.698
 8439W        W50450   2.699   2.244   8.592
 8440W        W50451  25.579   9.534  11.522
 8441W        W50452   0.499  10.204  15.372
 8442W        W50453  20.219   7.744   9.822
 8443W        W50454  22.499   5.004  10.242
 8444W        W50455  10.809  15.414   3.482
 8445W        W50456  24.119  16.724   3.132
 8446W        W50457  15.559   5.314   0.258
 8447W        W50458   5.599   7.774   9.242
 8448W        W50459  12.389  15.854   4.982
 8449W        W50460  12.759  21.034   0.028
 8450W        W50461   1.109  10.604   9.112
 8451W        W50462  18.629  22.561   1.718
 8452W        W50463   3.279  18.734   7.392
 8453W        W50464  23.099  10.504  14.982
 8454W        W50465  11.829   3.334  10.592
 8455W        W50466   0.139  18.484   2.418
 8456W        W50467  12.749   9.344   9.812
 8457W        W50468  22.989  14.974   9.392
 8458W        W50469   4.639   0.294   9.302
 8459W        W50470  16.169  16.384  15.492
 8460W        W50471  16.329  19.344  10.792
 8461W        W50472  14.479  17.444  14.672
 8462W        W50473  11.199  15.024   9.502
 8463W        W50474  16.989   5.484  14.832
 8464W        W50475  24.429  14.054   2.762
 8465W        W50476   0.559  18.474   2.018
 8466W        W50477   2.279  19.684   3.572
 8467W        W50478  13.889   6.094  14.862
 8468W        W50479   8.909  10.624   9.882
 8469W        W50480  13.529  16.054   4.092
 8470W        W50481  23.949  24.851   1.768
 8471W        W50482   5.609   5.324  11.222
 8472W        W50483  11.929  15.734   4.812
 8473W        W50484   6.619   7.534   0.258
 8474W        W50485  19.149   5.114   1.338
 8475W        W50486  13.209  11.734   1.308
 8476W        W50487  10.139  13.844   3.122
 8477W        W50488   9.029   1.674  15.542
 8478W        W50489   5.309  18.274  11.622
 8479W        W50490  13.269   4.984   0.168
 8480W        W50491  12.759  10.644   2.148
 8481W        W50492   2.709  20.614   4.492
 8482W        W50493  25.219   6.194  11.082
 8483W        W50494  14.549  25.361   2.208
 8484W        W50495   4.359  16.554   9.892
 8485W        W50496  21.659  22.461   9.442
 8486W        W50497  23.599  16.144  15.532
 8487W        W50498   7.739   6.884   8.062
 8488W        W50499   1.589  13.884   8.632
 8489W        W50500  11.489   5.194  10.592
 8490W        W50501   0.589  17.934  12.042
 8491W        W50502  16.189  24.881   9.372
 8492W        W50503  22.869   4.994   8.182
 8493W        W50504  17.319   3.134   0.768
 8494W        W50505   2.919  23.491   1.698
 8495W        W50506   6.199  16.144   0.378
 8496W        W50507  11.169  24.001  15.862
 8497W        W50508  23.869   3.744  15.212
 8498W        W50509   1.429  20.524   9.952
 8499W        W50510  21.969   7.074   0.928
 8500W        W50511  11.429   3.544  15.062
 8501W        W50512   2.469  20.054  15.552
 8502W        W50513   8.809  21.481   1.298
 8503W        W50514   7.369   7.824   3.032
 8504W        W50515  24.259   2.384   3.662
 8505W        W50516  13.979  16.784   8.272
 8506W        W50517  17.959  19.204   2.388
 8507W        W50518   8.979   8.744   2.772
 8508W        W50519  10.749   8.364   0.918
 8509W        W50520  10.949  11.134   2.478
 8510W        W50521  20.289  24.351   3.612
 8511W        W50522   6.859   8.684   1.138
 8512W        W50523   4.119   2.934   9.742
 8513W        W50524  18.659   1.854   1.168
 8514W        W50525   5.209  23.831   2.922
 8515W        W50526  10.269  23.911   3.522
 8516W        W50527  15.909  24.921   8.622
 8517W        W50528  22.359   1.814   0.648
 8518W        W50529   8.519  18.754   0.438
 8519W        W50530  13.969  18.134  10.672
 8520W        W50531  24.649   0.064   2.138
 8521W        W50532  19.779   5.414  11.192
 8522W        W50533   8.359   5.194  10.282
 8523W        W50534  23.249  21.361   2.478
 8524W        W50535   3.959   4.664   7.882
 8525W        W50536   4.779  19.974   3.072
 8526W        W50537  18.919   5.924   1.168
 8527W        W50538   9.849  17.594   3.982
 8528W        W50539  14.429   1.234   0.828
 8529W        W50540   7.849  18.464   3.042
 8530W        W50541  15.739   3.754   0.768
 8531W        W50542  22.969  22.161  12.272
 8532W        W50543   0.469  17.474   9.702
 8533W        W50544  18.239   6.794   9.962
 8534W        W50545  16.059  13.824  11.022
 8535W        W50546  12.419  19.314  15.452
 8536W        W50547  14.669  11.744  11.092
 8537W        W50548  15.659  13.794  15.212
 8538W        W50549  22.589   0.434  10.492
 8539W        W50550   6.079  19.214   9.582
 8540W        W50551   4.729  13.794   0.268
 8541W        W50552  23.429  18.824  10.272
 8542W        W50553  23.159  14.274  11.962
 8543W        W50554  15.479  17.664   0.838
 8544W        W50555  16.309   0.864   8.412
 8545W        W50556  24.129   9.904   2.398
 8546W        W50557   0.179  11.644   3.302
 8547W        W50558  17.419   5.604  10.592
 8548W        W50559  15.679  24.131   8.772
 8549W        W50560   6.499  23.921  15.262
 8550W        W50561  13.929  22.651   4.412
 8551W        W50562   0.939  22.541   2.148
 8552W        W50563   8.599   3.284   0.288
 8553W        W50564  19.369  18.004   0.908
 8554W        W50565   9.139  23.571   3.002
 8555W        W50566   0.011   5.184  14.882
 8556W        W50567  23.139  24.081  10.812
 8557W        W50568   8.519   4.314   2.238
 8558W        W50569  24.779   3.274   8.292
 8559W        W50570  21.869   9.744  11.292
 8560W        W50571  24.859   8.204   2.542
 8561W        W50572   4.489   3.294  15.562
 8562W        W50573  19.359  15.404   8.172
 8563W        W50574   2.749  19.324   2.188
 8564W        W50575  21.709  14.664  10.712
 8565W        W50576  19.849   2.724   1.368
 8566W        W50577  15.009  23.841  15.742
 8567W        W50578  11.809  19.654   0.318
 8568W        W50579  20.129  18.374   9.522
 8569W        W50580  24.049  10.154   1.168
 8570W        W50581  18.129   2.394   2.612
 8571W        W50582  13.999   5.834   3.482
 8572W        W50583  14.809  14.724  15.862
 8573W        W50584  16.889  23.481   1.628
 8574W        W50585   6.759  17.774   7.862
 8575W        W50586  24.409   0.544   1.988
 8576W        W50587  15.289  14.714  15.552
 8577W        W50588  23.649  16.404   9.952
 8578W        W50589  23.829   6.774   2.118
 8579W        W50590   0.639   4.464   8.522
 8580W        W50591  22.609   3.894   1.828
 8581W        W50592   2.709   1.424  11.502
 8582W        W50593  23.039   3.364   9.272
 8583W        W50594   7.149  14.964   9.792
 8584W        W50595   3.689   5.344   8.262
 8585W        W50596  16.619  24.971   1.268
 8586W        W50597  16.409   0.034   9.702
 8587W        W50598   3.469   7.324   2.428
 8588W        W50599   4.529  23.981   1.348
 8589W        W50600  12.109   1.454   8.592
 8590W        W50601   7.219   3.124   8.272
 8591W        W50602  25.499  23.011   8.022
 8592W        W50603  15.039   5.434  15.242
 8593W        W50604   4.819   3.124   8.662
 8594W        W50605  11.049   8.994   4.412
 8595W        W50606  18.069   0.344  10.092
 8596W        W50607  23.939   7.344   9.252
 8597W        W50608   0.469  17.124   8.452
 8598W        W50609  25.169   3.584   2.328
 8599W        W50610  25.569  15.894   0.588
 8600W        W50611   4.869   7.274  10.182
 8601W        W50612  17.789  14.654   9.942
 8602W        W50613   2.429   2.784  11.602
 8603W        W50614   6.959  11.284   8.092
 8604W        W50615   3.039  21.951   8.962
 8605W        W50616  12.679   9.654   4.672
 8606W        W50617   2.979  24.551   3.742
 8607W        W50618  25.439   4.394   7.962
 8608W        W50619   9.049  10.334   1.998
 8609W        W50620  24.299   2.394   6.982
 8610W        W50621  24.289  11.724   9.942
 8611W        W50622  19.149  10.874   0.048
 8612W        W50623  16.169  22.341   9.172
 8613W        W50624  18.259   6.804  15.792
 8614W        W50625   9.009   3.064   2.712
 8615W        W50626   1.189   7.074   7.232
 8616W        W50627  15.629  11.404   0.908
 8617W        W50628   3.749  21.234   7.512
 8618W        W50629  22.279  13.554   3.892
 8619W        W50630  25.449  25.451  10.752
 8620W        W50631  15.929  12.444   3.282
 8621W        W50632   5.849  20.294   9.012
 8622W        W50633  24.879  25.461  10.362
 8623W        W50634   0.179   6.654   1.128
 8624W        W50635  15.839  24.221   1.898
 8625W        W50636   9.039   1.204   2.632
 8626W        W50637   6.999  14.044  15.392
 8627W        W50638   7.349  16.024   8.632
 8628W        W50639  23.059  16.584  10.742
 8629W        W50640  14.739   5.674   8.442
 8630W        W50641  15.719  17.564   9.472
 8631W        W50642   1.079  13.264   7.912
 8632W        W50643   4.399   3.434   1.028
 8633W        W50644   1.299  16.244   2.762
 8634W        W50645  23.889  16.364   8.142
 8635W        W50646   1.219   1.434  10.912
 8636W        W50647  19.289   7.174   9.292
 8637W        W50648  23.679  19.354   2.368
 8638W        W50649   0.099  21.631  11.242
 8639W        W50650  19.829   7.044  15.392
 8640W        W50651  10.839   7.944   0.068
 8641W        W50652  11.139  12.754   3.532
 8642W        W50653   7.629  15.194   1.248
 8643W        W50654  15.089   7.204   0.928
 8644W        W50655   9.839  10.204   1.198
 8645W        W50656   6.889   5.534   3.022
 8646W        W50657  11.779   7.894   3.832
 8647W        W50658  18.619   4.064  11.202
 8648W        W50659   1.479  11.654   9.992
 8649W        W50660   2.239  18.854   3.202
 8650W        W50661  24.759  21.541   0.168
 8651W        W50662  23.089   1.204  10.062
 8652W        W50663  16.429   1.094   3.422
 8653W        W50664   5.719  12.754   4.142
 8654W        W50665  12.069  16.684  10.302
 8655W        W50666  19.419   7.434  15.862
 8656W        W50667  12.859  15.124  14.942
 8657W        W50668   4.809  17.044   2.872
 8658W        W50669   6.169  11.774   2.972
 8659W        W50670  21.209   2.334   3.022
 8660W        W50671  14.049   1.854   2.208
 8661W        W50672  17.649   6.874   2.098
 8662W        W50673  22.259  25.331   0.058
 8663W        W50674   3.159  21.401   1.768
 8664W        W50675   9.199  25.591   2.662
 8665W        W50676   1.089  23.891   0.578
 8666W        W50677  24.309  19.724   8.152
 8667W        W50678   6.639   4.224   0.208
 8668W        W50679  23.239   4.354   1.378
 8669W        W50680  11.989   3.084   2.248
 8670W        W50681   6.539   1.624   9.162
 8671W        W50682   1.679   5.864   0.318
 8672W        W50683  13.009   7.224   8.302
 8673W        W50684   0.769   6.484   2.722
 8674W        W50685  15.059  15.684  10.182
 8675W        W50686  20.699   0.054   8.912
 8676W        W50687  14.309  10.484   4.382
 8677W        W50688  20.599   9.214  10.322
 8678W        W50689  13.919  12.404   1.278
 8679W        W50690  16.789   1.754   2.922
 8680W        W50691  10.939  23.171  10.812
 8681W        W50692   4.569  15.164   8.872
 8682W        W50693   5.639  12.244   1.278
 8683W        W50694  12.399  21.304   2.762
 8684W        W50695   9.309  14.454   1.118
 8685W        W50696   9.569  17.844  10.552
 8686W        W50697   0.829  15.444   2.552
 8687W        W50698  12.489   8.774   4.942
 8688W        W50699  16.969   5.224   8.842
 8689W        W50700  25.139   0.644   9.752
 8690W        W50701   7.099   4.624   0.198
 8691W        W50702   0.859   2.844   8.162
 8692W        W50703  10.309  16.054   2.398
 8693W        W50704  12.339  14.674  14.912
 8694W        W50705  20.119  25.451   0.318
 8695W        W50706  14.129  20.964  15.582
 8696W        W50707   5.639  24.601   9.892
 8697W        W50708  20.399   7.964   8.562
 8698W        W50709  15.339  19.194   2.532
 8699W        W50710  18.829  21.184  15.292
 8700W        W50711   8.639  22.901   4.632
 8701W        W50712  19.499  14.594   0.778
 8702W        W50713   6.799  21.481   2.822
 8703W        W50714  14.109   5.314  14.832
 8704W        W50715   0.099  16.634   2.882
 8705W        W50716   4.509  11.584  10.812
 8706W        W50717  19.119   4.404   9.082
 8707W        W50718  13.429   7.004   4.642
 8708W        W50719   3.899   6.384  15.262
 8709W        W50720  15.959  17.754   2.602
 8710W        W50721  23.749  19.644   0.598
 8711W        W50722  23.579  20.794   9.782
 8712W        W50723  14.639  16.694   0.278
 8713W        W50724   0.979  22.341   8.422
 8714W        W50725  17.639   7.774  15.722
 8715W        W50726  11.019  22.851  15.572
 8716W        W50727  13.339   2.704   1.218
 8717W        W50728  17.829  17.314   3.612
 8718W        W50729  12.039  20.054   9.182
 8719W        W50730  11.509   6.714   3.892
 8720W        W50731  13.319  13.224   1.138
 8721W        W50732  23.479  23.621  10.482
 8722W        W50733   7.659  20.174  10.952
 8723W        W50734  14.329  23.271   0.558
 8724W        W50735   6.229  22.571  10.372
 8725W        W50736  16.439  11.584   3.392
 8726W        W50737   5.629   7.554   6.942
 8727W        W50738   9.629   7.604   2.468
 8728W        W50739   5.499   6.314  11.202
 8729W        W50740  19.179  12.264  10.642
 8730W        W50741  17.629   9.774   2.368
 8731W        W50742  15.149   6.404   9.982
 8732W        W50743  18.519   5.064   1.198
 8733W        W50744  17.389  12.424   2.268
 8734W        W50745  10.269  11.954   3.852
 8735W        W50746  23.119   3.054   3.122
 8736W        W50747  18.579  23.121  11.332
 8737W        W50748  17.099   1.434   9.202
 8738W        W50749  23.399  22.971  10.002
 8739W        W50750   7.809   5.794   0.008
 8740W        W50751  11.659   8.814  15.112
 8741W        W50752  22.169  24.991  11.752
 8742W        W50753   5.779  23.531   3.632
 8743W        W50754   9.389   4.474   1.848
 8744W        W50755   7.799  16.644   0.528
 8745W        W50756  15.659   6.944   2.248
 8746W        W50757  18.419  10.754   7.752
 8747W        W50758  20.679  16.604   1.978
 8748W        W50759   2.699  19.494   9.622
 8749W        W50760   3.369  19.544   1.548
 8750W        W50761   5.519   7.244   3.112
 8751W        W50762  12.489  15.144  14.592
 8752W        W50763   5.809  17.074   1.028
 8753W        W50764   4.359   7.314  15.042
 8754W        W50765  16.239  19.904   9.512
 8755W        W50766   1.389   9.254   1.868
 8756W        W50767  15.009  24.921   1.578
 8757W        W50768  25.549  15.474   0.088
 8758W        W50769   4.789  19.664   3.462
 8759W        W50770   6.339  19.034   9.962
 8760W        W50771  13.529  14.044   0.778
 8761W        W50772  23.589   1.084   1.188
 8762W        W50773  25.259  11.504  15.252
 8763W        W50774  20.579  24.551   1.738
 8764W        W50775   3.289  11.794   0.848
 8765W        W50776   2.039   9.504   0.748
 8766W        W50777  11.999  14.004   2.158
 8767W        W50778   4.319  18.144   1.278
 8768W        W50779  13.969  11.984  14.972
 8769W        W50780  16.559   5.794   1.108
 8770W        W50781  25.109  23.301  10.442
 8771W        W50782  20.879  23.031  12.652
 8772W        W50783  24.309  20.414  10.002
 8773W        W50784  21.429  15.674  11.892
 8774W        W50785  24.399  18.224   2.118
 8775W        W50786   9.489  10.584   8.662
 8776W        W50787   4.239  10.464   3.492
 8777W        W50788  12.969  24.051   8.282
 8778W        W50789   3.779  15.324   3.762
 8779W        W50790  14.029  24.721  10.652
 8780W        W50791  18.459   1.014   0.588
 8781W        W50792   6.729  21.551   0.338
 8782W        W50793   7.169  13.384   8.512
 8783W        W50794  25.439  16.254   3.312
 8784W        W50795   6.359   3.214   7.982
 8785W        W50796  16.029   4.564   0.778
 8786W        W50797  22.379  11.864   0.098
 8787W        W50798   5.029  11.034   0.658
 8788W        W50799   3.119  22.011  15.862
 8789W        W50800  21.919   0.554   8.832
 8790W        W50801  14.679  12.724  14.812
 8791W        W50802  21.329  10.234   2.248
 8792W        W50803  23.849  14.774   7.652
 8793W        W50804  22.089  12.284   1.358
 8794W        W50805  16.939  17.264   8.492
 8795W        W50806   5.939  11.724   9.372
 8796W        W50807  13.329  15.654   0.888
 8797W        W50808  24.339  25.011  15.772
 8798W        W50809  14.939   2.764   1.738
 8799W        W50810   2.169   9.344  10.312
 8800W        W50811  20.899  10.264   2.552
 8801W        W50812  16.259   2.754   9.082
 8802W        W50813  22.549  10.834   8.362
 8803W        W50814   7.889  20.594  10.842
 8804W        W50815  16.739   5.254  15.692
 8805W        W50816  21.119   7.614   1.828
 8806W        W50817  18.229  10.504   9.732
 8807W        W50818  23.719   4.184   8.472
 8808W        W50819   5.439  15.674   3.282
 8809W        W50820  22.049  23.901   0.948
 8810W        W50821  16.509  19.424   0.828
 8811W        W50822  15.429   5.824   1.888
 8812W        W50823   8.149  21.441   7.952
 8813W        W50824   4.909   0.364  10.522
 8814W        W50825  11.859   5.834   1.898
 8815W        W50826   0.449   8.494   1.848
 8816W        W50827  18.599  22.221  11.732
 8817W        W50828  17.349  19.024   9.672
 8818W        W50829  23.829  24.071   3.362
 8819W        W50830   7.729   7.304   9.122
 8820W        W50831  23.599  13.234   0.398
 8821W        W50832  25.549  11.274  10.242
 8822W        W50833  14.139   7.704   1.598
 8823W        W50834  12.599   8.324  14.482
 8824W        W50835  23.669  18.954   8.192
 8825W        W50836  20.619  24.041   2.672
 8826W        W50837  12.229   0.324   9.102
 8827W        W50838   2.219  25.381  11.012
 8828W        W50839   1.269  15.394   8.252
 8829W        W50840   9.419   4.824   0.108
 8830W        W50841  22.969  19.034  11.972
 8831W        W50842  22.899  11.134   1.638
 8832W        W50843   0.389   1.044   1.868
 8833W        W50844  10.979  22.261  10.382
 8834W        W50845   0.479   3.274   2.348
 8835W        W50846  23.989   9.194   1.018
 8836W        W50847  11.659   6.714  14.192
 8837W        W50848  18.399  24.671   3.202
 8838W        W50849  13.379  20.134   9.142
 8839W        W50850  11.029   4.474  15.772
 8840W        W50851   6.299  16.074   1.478
 8841W        W50852   5.389  17.764   8.362
 8842W        W50853  11.319  21.244   9.552
 8843W        W50854   0.399  13.424   0.378
 8844W        W50855   7.689  21.871  10.552
 8845W        W50856  23.689  13.614   2.468
 8846W        W50857  10.569   0.474   3.512
 8847W        W50858  20.059   4.514   3.222
 8848W        W50859  10.159  18.494   4.212
 8849W        W50860   7.339  23.251   0.688
 8850W        W50861   6.969   0.654   3.692
 8851W        W50862  25.099  21.244   2.832
 8852W        W50863   8.969  20.204   0.768
 8853W        W50864  23.879  11.314   8.332
 8854W        W50865  11.119   6.414   2.582
 8855W        W50866   6.189   1.084   9.952
 8856W        W50867  10.869   6.134   3.082
 8857W        W50868   6.169   8.184   0.718
 8858W        W50869  21.509  12.744   9.872
 8859W        W50870  19.729  16.874   3.312
 8860W        W50871   2.699   1.774   9.452
 8861W        W50872   1.439  22.951   2.428
 8862W        W50873   0.929  25.381   8.762
 8863W        W50874  12.019  17.904   2.258
 8864W        W50875  25.059  22.861  10.192
 8865W        W50876   4.129   0.514  12.022
 8866W        W50877  23.409   0.644   3.312
 8867W        W50878   8.229   5.524   1.388
 8868W        W50879  22.139   8.134   9.382
 8869W        W50880   5.739  11.244   8.522
 8870W        W50881  13.169  19.314   8.702
 8871W        W50882  14.729   2.764   4.122
 8872W        W50883  24.649  19.794   1.808
 8873W        W50884  22.589  19.124   2.178
 8874W        W50885   1.709   9.624   7.602
 8875W        W50886  14.709   8.014   1.368
 8876W        W50887  16.779  17.554   8.892
 8877W        W50888  24.219   1.874   2.298
 8878W        W50889   4.479   4.834   1.428
 8879W        W50890  21.629   5.504  14.902
 8880W        W50891   9.709   3.784   9.852
 8881W        W50892  24.889   8.774   2.702
 8882W        W50893   8.249  24.331   0.458
 8883W        W50894  24.209   2.664   0.248
 8884W        W50895  19.239  14.784   4.122
 8885W        W50896  10.889  18.294  10.142
 8886W        W50897  16.009  23.351  10.072
 8887W        W50898  11.419  23.581  15.762
 8888W        W50899   7.599   1.624  10.242
 8889W        W50900  24.299   8.164   1.548
 8890W        W50901  22.149   0.794   9.272
 8891W        W50902  22.389   0.484   8.282
 8892W        W50903  12.959   8.944   0.998
 8893W        W50904   6.619  22.681   8.812
 8894W        W50905  20.199   1.274   3.962
 8895W        W50906  18.869  22.831   3.522
 8896W        W50907  16.249   9.464   2.782
 8897W        W50908  21.829  22.111   2.448
 8898W        W50909   8.329   8.214   4.072
 8899W        W50910  21.989  21.014   0.398
 8900W        W50911  17.939  17.804   0.708
 8901W        W50912  21.719  20.034  11.252
 8902W        W50913  23.319  24.051   3.462
 8903W        W50914   2.149  22.221   2.468
 8904W        W50915  22.749  10.624  15.702
 8905W        W50916  19.179   3.984   1.438
 8906W        W50917   3.629  10.174   8.582
 8907W        W50918  19.539  16.724  11.092
 8908W        W50919  13.669  17.074  10.022
 8909W        W50920  17.599   2.024  15.422
 8910W        W50921  18.029  18.694   4.032
 8911W        W50922  16.929  24.221  10.722
 8912W        W50923   6.329   5.304   2.288
 8913W        W50924  10.399   2.304   2.582
 8914W        W50925   7.869  15.284   3.172
 8915W        W50926  18.699   1.674   3.372
 8916W        W50927  17.569  16.034   9.712
 8917W        W50928  10.029   0.014   9.812
 8918W        W50929   3.129  19.254   9.692
 8919W        W50930  25.369  17.094   7.922
 8920W        W50931   9.639   0.594   7.902
 8921W        W50932  13.929   5.154   8.952
 8922W        W50933   8.769  16.924   0.228
 8923W        W50934   4.569  20.164   0.628
 8924W        W50935  16.159   2.544   3.792
 8925W        W50936  20.159  13.034   2.712
 8926W        W50937  23.499   6.264   7.942
 8927W        W50938   1.309   2.794   8.562
 8928W        W50939   1.189   7.134  15.602
 8929W        W50940  13.099   3.984   0.908
 8930W        W50941  19.209  24.631  11.692
 8931W        W50942  22.149   7.674  10.012
 8932W        W50943  23.589   4.344  10.622
 8933W        W50944  15.869   6.944  14.592
 8934W        W50945   8.219   4.514  14.302
 8935W        W50946   6.079   9.494  10.252
 8936W        W50947  17.909  22.011  11.192
 8937W        W50948  14.459  10.244  15.152
 8938W        W50949  11.049  20.934   9.782
 8939W        W50950   8.369  14.244   1.178
 8940W        W50951  11.539   9.574   0.948
 8941W        W50952  18.749  12.124   8.812
 8942W        W50953  25.589  11.074   8.372
 8943W        W50954   6.439   2.364  15.272
 8944W        W50955   8.249   8.644   9.772
 8945W        W50956   2.409   5.314   9.972
 8946W        W50957   4.999  22.431  12.132
 8947W        W50958  18.129   6.184   0.048
 8948W        W50959  11.589  17.804  10.622
 8949W        W50960  14.929  19.564   1.568
 8950W        W50961   8.389  20.244   9.732
 8951W        W50962   6.089   1.064   1.908
 8952W        W50963  13.009   6.674   2.952
 8953W        W50964  12.909  22.521  10.242
 8954W        W50965  13.149   7.144   3.892
 8955W        W50966  11.139   1.204   2.742
 8956W        W50967  25.059  13.734   0.388
 8957W        W50968  19.849  18.074   1.198
 8958W        W50969  16.729  24.471   1.278
 8959W        W50970  15.799  19.164   0.468
 8960W        W50971  15.909  22.001   1.118
 8961W        W50972   2.629  19.454  10.692
 8962W        W50973  23.129  17.764   0.658
 8963W        W50974  22.739   8.704   0.888
 8964W        W50975   1.189  11.134   8.102
 8965W        W50976  10.029  19.824   2.932
 8966W        W50977  17.169  16.104   2.488
 8967W        W50978   5.049  25.391   2.862
 8968W        W50979   1.859   7.054   2.358
 8969W        W50980  20.399   3.324  10.412
 8970W        W50981   1.629  21.971   3.042
 8971W        W50982  18.939  13.264   8.002
 8972W        W50983   3.309  17.874   8.922
 8973W        W50984  17.739   4.554   1.148
 8974W        W50985  14.129   4.844  15.022
 8975W        W50986  23.629  21.064   8.912
 8976W        W50987   7.639   7.544  11.292
 8977W        W50988  19.819   8.914   1.378
 8978W        W50989  23.109  15.834  11.442
 8979W        W50990  13.809  19.964  11.032
 8980W        W50991  25.459  24.491   9.622
 8981W        W50992   4.979   5.154  10.752
 8982W        W50993  18.489  16.964   1.698
 8983W        W50994   4.739   4.084   8.452
 8984W        W50995  21.259  19.654   2.782
 8985W        W50996  24.779  17.584   8.212
 8986W        W50997   8.539  14.674   3.582
 8987W        W50998  12.039  12.734   2.842
 8988W        W50999  24.469  22.441   2.168
 8989W        W51000  14.439   7.034  14.672
 8990W        W51001  16.569   3.854   4.362
 8991W        W51002  10.409  17.654   0.578
 8992W        W51003   6.309  21.224   1.838
 8993W        W51004  23.639  10.734   7.242
 8994W        W51005  18.239  11.084   9.192
 8995W        W51006  20.369  22.151   9.682
 8996W        W51007   4.959  20.984   8.362
 8997W        W51008  19.949  21.831   0.688
 8998W        W51009   6.049  24.461   9.582
 8999W        W51010  19.569  20.014   2.602
 9000W        W51011  22.299   4.834   9.122
 9001W        W51012  21.419   4.344   0.918
 9002W        W51013  10.269  13.124  15.012
 9003W        W51014  11.789   8.084   3.342
 9004W        W51015  12.209  20.934   1.258
 9005W        W51016  25.339   4.794   0.808
 9006W        W51017  18.169   9.194  15.432
 9007W        W51018  12.239  15.154   0.798
 9008W        W51019  11.939  19.454   3.222
 9009W        W51020  10.229  17.364  15.312
 9010W        W51021  11.909  21.691   8.232
 9011W        W51022  12.809  25.141   3.302
 9012W        W51023   6.399   4.134   2.378
 9013W        W51024   6.539  14.484   9.202
 9014W        W51025  11.169  14.364   9.582
 9015W        W51026   9.939  23.231   4.062
 9016W        W51027   0.619  15.064   9.962
 9017W        W51028   4.059  20.014   7.872
 9018W        W51029   0.349  22.031   3.002
 9019W        W51030   9.339   1.864   1.948
 9020W        W51031  11.929   0.434   1.438
 9021W        W51032   1.979  22.961   2.108
 9022W        W51033  11.349   1.744  15.472
 9023W        W51034  25.379   7.254  15.312
 9024W        W51035   3.459  24.121   2.992
 9025W        W51036  15.519  13.574   0.628
 9026W        W51037   1.429  22.251   9.132
 9027W        W51038   7.439   9.394   2.502
 9028W        W51039  12.599  18.134   4.442
 9029W        W51040   9.599   6.224   1.508
 9030W        W51041  11.119  18.184   4.562
 9031W        W51042  20.619   9.894   2.118
 9032W        W51043  16.559   1.514   1.988
 9033W        W51044  23.959  16.644  11.732
 9034W        W51045   9.609  25.181   0.028
 9035W        W51046  14.489   9.114   9.552
 9036W        W51047   9.039  13.574   2.338
 9037W        W51048  25.219   9.274   0.938
 9038W        W51049  18.349   7.344   9.812
 9039W        W51050  15.019  12.314   4.202
 9040W        W51051  24.539  25.031   3.772
 9041W        W51052  10.959   4.984  13.822
 9042W        W51053   2.029  15.824   1.068
 9043W        W51054  14.899  11.344   0.318
 9044W        W51055  24.979  18.014   4.012
 9045W        W51056   7.229  22.551   1.638
 9046W        W51057  20.169   4.094   9.512
 9047W        W51058   7.789  24.161   0.388
 9048W        W51059   1.279  14.994  11.282
 9049W        W51060   9.399  21.971   2.168
 9050W        W51061  13.699   3.454   1.758
 9051W        W51062   7.529  15.544   0.788
 9052W        W51063   2.189  11.664   2.782
 9053W        W51064   0.889  14.414  12.042
 9054W        W51065   5.249  18.464   2.962
 9055W        W51066   5.409  19.774   1.558
 9056W        W51067  20.109   1.474   2.068
 9057W        W51068   2.289  22.671   3.262
 9058W        W51069   9.099   1.404   7.862
 9059W        W51070   2.629   1.924  10.242
 9060W        W51071  11.369  20.344   1.378
 9061W        W51072  10.059  10.204   0.678
 9062W        W51073  23.869   2.894   8.992
 9063W        W51074  13.329  18.584   1.518
 9064W        W51075  22.799  10.374   0.918
 9065W        W51076  21.909   1.664   1.918
 9066W        W51077  13.759  11.874   1.458
 9067W        W51078  20.069  19.374  10.112
 9068W        W51079   7.119   7.034   1.908
 9069W        W51080   0.059  22.351   0.898
 9070W        W51081   2.849  13.244   0.938
 9071W        W51082   9.329   6.444   1.098
 9072W        W51083  12.429   8.134   9.602
 9073W        W51084  16.889   3.854   7.872
 9074W        W51085  16.399   4.294  15.032
 9075W        W51086   5.119   4.414   9.652
 9076W        W51087   8.559  10.504   1.308
 9077W        W51088  10.099  10.484  10.602
 9078W        W51089  15.679  11.484   0.368
 9079W        W51090  16.209  25.311  12.062
 9080W        W51091  24.719  22.221  10.902
 9081W        W51092   7.549  21.364   0.628
 9082W        W51093   6.509  17.274  15.592
 9083W        W51094  19.609  16.784   1.268
 9084W        W51095   3.139   7.624   1.418
 9085W        W51096  16.129  18.514   1.478
 9086W        W51097  12.499  13.974   3.472
 9087W        W51098   2.079   2.054   6.902
 9088W        W51099  19.829   4.994   2.068
 9089W        W51100  21.909  21.561   1.118
 9090W        W51101  16.519  19.884   0.688
 9091W        W51102   4.179  12.594   2.288
 9092W        W51103   3.839  19.674   4.602
 9093W        W51104  22.979  11.464   8.672
 9094W        W51105  19.539   1.184  11.202
 9095W        W51106   8.769  24.351   4.182
 9096W        W51107  11.099   7.094   2.308
 9097W        W51108   0.349  10.154   7.602
 9098W        W51109   1.079   3.764   2.892
 9099W        W51110   8.869  19.834   0.448
 9100W        W51111  24.209  12.724   9.132
 9101W        W51112  12.199   7.084   4.552
 9102W        W51113  18.299  19.764  10.082
 9103W        W51114  12.809   1.514   1.298
 9104W        W51115  23.449  16.294   1.678
 9105W        W51116   7.429  19.914   2.218
 9106W        W51117  18.079  10.364   3.052
 9107W        W51118  21.959  10.074   2.018
 9108W        W51119   6.339  21.354   0.038
 9109W        W51120   1.569   2.734   1.448
 9110W        W51121   3.629   7.524   1.448
 9111W        W51122  22.269   6.364  10.862
 9112W        W51123  19.239  15.574  11.122
 9113W        W51124   0.499  11.924   2.852
 9114W        W51125  16.469  18.734   8.252
 9115W        W51126   7.979   3.064   2.338
 9116W        W51127   8.489  13.344  10.022
 9117W        W51128   1.579  12.454   2.488
 9118W        W51129  24.839   2.774   9.942
 9119W        W51130  19.549   0.644  11.602
 9120W        W51131   8.989  18.864   1.648
 9121W        W51132   7.069  14.574   4.372
 9122W        W51133   2.019  17.404   9.542
 9123W        W51134   7.779  24.421   9.952
 9124W        W51135  19.609  12.624   1.778
 9125W        W51136  13.889  15.564  15.222
 9126W        W51137   7.389  22.461  11.112
 9127W        W51138  14.889  11.324   8.962
 9128W        W51139  21.429   2.734   1.578
 9129W        W51140  18.869  12.364   9.352
 9130W        W51141  17.039   7.114   2.692
 9131W        W51142   4.469  21.491   4.012
 9132W        W51143  10.969  12.794   0.228
 9133W        W51144  24.819  23.381   8.722
 9134W        W51145  18.529   3.254  15.302
 9135W        W51146   6.579  13.264  11.402
 9136W        W51147   8.299  24.181   1.028
 9137W        W51148  23.729  12.264   8.262
 9138W        W51149   0.729  13.094   1.128
 9139W        W51150  10.129  19.124   0.608
 9140W        W51151   8.269   6.484   1.068
 9141W        W51152  20.839  16.494   4.132
 9142W        W51153  18.989   1.754   9.042
 9143W        W51154  23.699  18.734   1.058
 9144W        W51155  17.269   7.364   2.318
 9145W        W51156  22.689   9.964   3.692
 9146W        W51157  20.419   3.544   7.862
 9147W        W51158  11.969  17.024   9.922
 9148W        W51159  19.709  24.611   2.752
 9149W        W51160   9.809  11.284  15.162
 9150W        W51161   2.299   5.584  11.112
 9151W        W51162  13.489   6.384   8.642
 9152W        W51163   1.639   2.394   8.662
 9153W        W51164  18.569  17.154   0.138
 9154W        W51165  11.909  24.531   8.902
 9155W        W51166  20.909  13.084  10.702
 9156W        W51167   6.959   5.054   3.152
 9157W        W51168   9.609  12.074  10.862
 9158W        W51169  10.859  21.361   3.392
 9159W        W51170  13.779   7.874   2.078
 9160W        W51171  21.869   1.194   9.432
 9161W        W51172  11.859  12.034   4.872
 9162W        W51173   7.909  17.134   8.362
 9163W        W51174   2.109   1.954  10.352
 9164W        W51175  17.459   1.724   3.552
 9165W        W51176  23.529  18.134   2.058
 9166W        W51177  14.229  17.554   9.472
 9167W        W51178  24.409  16.314  10.282
 9168W        W51179  22.889   6.054   6.772
 9169W        W51180   6.049  22.211   0.488
 9170W        W51181  19.029  18.684  11.822
 9171W        W51182   8.329  13.784  14.782
 9172W        W51183   5.189   4.114   0.818
 9173W        W51184   8.899  25.271   1.488
 9174W        W51185  23.419   3.274  12.092
 9175W        W51186  10.349   2.044   8.592
 9176W        W51187   4.489  18.274   0.838
 9177W        W51188   1.079  16.614   2.298
 9178W        W51189   5.199  17.884   9.712
 9179W        W51190  20.489  17.494   1.448
 9180W        W51191  17.299  17.174   3.382
 9181W        W51192  11.339  11.274   1.198
 9182W        W51193  23.729  22.121   0.468
 9183W        W51194   0.389  15.094  12.002
 9184W        W51195  11.259  16.344   1.378
 9185W        W51196   0.069  23.501  10.052
 9186W        W51197  12.229   0.124   8.652
 9187W        W51198   6.489  13.504   7.262
 9188W        W51199  25.119  21.951   3.232
 9189W        W51200  15.819   4.144   9.242
 9190W        W51201   4.569   7.394  11.092
 9191W        W51202  18.539   7.974   1.958
 9192W        W51203  21.119  21.841   0.898
 9193W        W51204  11.169  18.584  15.802
 9194W        W51205   4.929   9.414   8.742
 9195W        W51206   0.429   3.194   1.818
 9196W        W51207   6.099   4.834   9.722
 9197W        W51208   3.129  20.034  11.442
 9198W        W51209   9.039  23.041   2.498
 9199W        W51210   9.059  10.494   0.298
 9200W        W51211  21.459   4.714  11.732
 9201W        W51212   9.939  14.814   3.482
 9202W        W51213  18.189   9.704  15.652
 9203W        W51214  16.369  22.301   8.192
 9204W        W51215   2.539  10.434   2.088
 9205W        W51216  22.529  18.424   1.188
 9206W        W51217  21.619  13.034  15.832
 9207W        W51218   8.799  14.734   1.748
 9208W        W51219  14.529   9.324   2.822
 9209W        W51220  20.099  17.174   3.282
 9210W        W51221   3.049  13.994   3.562
 9211W        W51222   7.479  14.364   8.222
 9212W        W51223  17.509   7.094  10.232
 9213W        W51224   4.699   0.634   4.092
 9214W        W51225  17.459  16.754   7.992
 9215W        W51226  16.299   0.974   7.532
 9216W        W51227   3.259   2.724  10.122
 9217W        W51228  21.629  20.794  11.922
 9218W        W51229   0.929   5.174   2.612
 9219W        W51230  16.199   8.124  14.902
 9220W        W51231   6.589  14.224   1.518
 9221W        W51232  16.999   1.854  10.892
 9222W        W51233  18.009  20.664   1.518
 9223W        W51234  23.679   9.324   8.002
 9224W        W51235  24.169   8.394   7.452
 9225W        W51236  24.659  21.451   8.282
 9226W        W51237  23.129  14.404   0.728
 9227W        W51238  23.469  16.304  12.452
 9228W        W51239  23.939  11.364  10.692
 9229W        W51240  21.769  22.001   0.098
 9230W        W51241  12.109  20.504   2.158
 9231W        W51242   4.479  21.264  10.342
 9232W        W51243  22.839  14.774  10.202
 9233W        W51244   6.889  12.054   0.398
 9234W        W51245  13.629  23.531   3.272
 9235W        W51246  17.319   3.304   9.932
 9236W        W51247  12.279   7.454   8.992
 9237W        W51248  13.049  21.284   3.522
 9238W        W51249   2.199   3.314   4.072
 9239W        W51250   5.239  13.424   0.628
 9240W        W51251  18.539   8.824   9.242
 9241W        W51252  13.129  16.254   1.868
 9242W        W51253   9.009  10.484  14.392
 9243W        W51254  14.579  15.324   1.368
 9244W        W51255   2.149  15.944   2.178
 9245W        W51256  24.259  13.724   9.672
 9246W        W51257  17.059  22.851   9.272
 9247W        W51258  22.929  22.141   9.232
 9248W        W51259  12.909  14.864   5.362
 9249W        W51260  17.789   2.544   3.462
 9250W        W51261   7.709   7.824   1.838
 9251W        W51262  23.169  22.031   8.792
 9252W        W51263   4.169   7.734  10.992
 9253W        W51264  11.989  10.744   1.798
 9254W        W51265  12.579   5.034  15.032
 9255W        W51266  16.199  10.154   2.248
 9256W        W51267   0.249   9.054  11.022
 9257W        W51268  19.409  10.024   9.292
 9258W        W51269   8.549  15.974   0.418
 9259W        W51270  11.749   1.174   2.962
 9260W        W51271  21.399  21.911   9.612
 9261W        W51272  19.479   1.794  15.122
 9262W        W51273   5.849  21.741  11.842
 9263W        W51274  13.269  22.401   0.928
 9264W        W51275  14.589  20.174  10.182
 9265W        W51276  21.159  13.204   9.722
 9266W        W51277   2.229  14.404  10.262
 9267W        W51278  10.199  23.391   3.622
 9268W        W51279  14.559  17.874   0.168
 9269W        W51280  19.489  20.974   4.022
 9270W        W51281  17.999   9.264   9.372
 9271W        W51282   9.249  17.384   1.438
 9272W        W51283  22.499  13.554   2.522
 9273W        W51284   2.079  24.161  10.022
 9274W        W51285  11.269   5.404   1.268
 9275W        W51286  23.049  13.234  11.742
 9276W        W51287  13.339   5.114   4.582
 9277W        W51288   2.519   6.044   1.428
 9278W        W51289  16.509  18.064   9.762
 9279W        W51290  20.129   0.704  15.662
 9280W        W51291  23.179   9.714   6.592
 9281W        W51292  12.859  21.651   0.158
 9282W        W51293  14.189  18.494   4.052
 9283W        W51294   0.809  21.631   9.242
 9284W        W51295  19.739  15.634   0.068
 9285W        W51296   5.079  24.891  10.612
 9286W        W51297   6.969   5.844   7.962
 9287W        W51298   0.109   6.904   7.212
 9288W        W51299   8.149   2.494   8.822
 9289W        W51300  15.979   7.954   9.952
 9290W        W51301  14.899  14.474   1.458
 9291W        W51302  23.719  23.981   8.682
 9292W        W51303   3.389  12.494   0.968
 9293W        W51304   8.719  10.464   3.322
 9294W        W51305  22.529  11.964   2.522
 9295W        W51306  14.059  25.491   8.312
 9296W        W51307   4.779  24.061   8.772
 9297W        W51308  17.559  21.344   9.982
 9298W        W51309   2.869   1.944   0.758
 9299W        W51310  23.849   6.594  11.072
 9300W        W51311   6.629  10.284  14.972
 9301W        W51312  21.809   1.034   8.712
 9302W        W51313   4.139  10.454   1.288
 9303W        W51314   2.729   6.934   8.802
 9304W        W51315  20.899   4.034   2.832
 9305W        W51316  24.739   9.504   1.028
 9306W        W51317  13.049   9.094  15.782
 9307W        W51318  12.749  15.534  10.242
 9308W        W51319   5.839  22.801  11.802
 9309W        W51320  13.379  18.914  15.082
 9310W        W51321  25.239  15.834   0.148
 9311W        W51322   8.619  13.734  15.162
 9312W        W51323   4.469  19.944   2.672
 9313W        W51324  17.149   1.864  11.442
 9314W        W51325  18.769   5.984   9.892
 9315W        W51326  22.359   8.004   0.318
 9316W        W51327   9.769  13.564   0.258
 9317W        W51328  20.139  23.821   2.692
 9318W        W51329   9.219  23.871   9.902
 9319W        W51330  10.289   3.194  14.292
 9320W        W51331   0.159  22.331  12.002
 9321W        W51332   2.319  17.794  12.152
 9322W        W51333  14.379  15.294   2.662
 9323W        W51334  14.439   1.434   2.952
 9324W        W51335  19.729  22.941   8.142
 9325W        W51336  22.579  14.694   9.242
 9326W        W51337   0.429  24.851  10.192
 9327W        W51338   7.159   0.474   2.712
 9328W        W51339   3.259  14.494   1.208
 9329W        W51340  19.349  20.194   2.992
 9330W        W51341  21.689   4.764   8.212
 9331W        W51342  12.119   0.574  15.572
 9332W        W51343  12.819   3.574   1.108
 9333W        W51344  15.039  17.984  15.852
 9334W        W51345   5.839   1.354  10.802
 9335W        W51346   8.859  15.454   2.258
 9336W        W51347   8.819  15.004   3.782
 9337W        W51348  16.079  15.334   2.438
 9338W        W51349  10.549  11.854  10.362
 9339W        W51350  11.999  23.741   3.322
 9340W        W51351  19.539   1.504   1.408
 9341W        W51352  16.459  24.431   2.992
 9342W        W51353   5.789  14.624  15.782
 9343W        W51354  11.369   6.684   2.118
 9344W        W51355  10.519  18.384   3.692
 9345W        W51356   4.529  16.234  10.392
 9346W        W51357  14.429  13.104   2.338
 9347W        W51358  22.759  14.764   0.248
 9348W        W51359  13.289  22.211   8.652
 9349W        W51360  24.529  25.411   4.182
 9350W        W51361  19.019  22.281   9.372
 9351W        W51362  10.979   7.384   1.888
 9352W        W51363  19.379  16.124  11.202
 9353W        W51364  16.349   6.584   8.952
 9354W        W51365  20.369  10.744   8.742
 9355W        W51366  10.049   5.134  15.342
 9356W        W51367  20.129  11.804   1.078
 9357W        W51368  16.559   0.574   9.642
 9358W        W51369   2.649   2.404  11.002
 9359W        W51370  11.569  23.011   3.242
 9360W        W51371  25.299  11.454   2.712
 9361W        W51372  22.429  25.201   9.772
 9362W        W51373  17.929   5.074   1.178
 9363W        W51374  22.099  20.364  10.112
 9364W        W51375  15.049  22.291   3.332
 9365W        W51376  15.479  15.924   9.362
 9366W        W51377  19.039  10.824   2.048
 9367W        W51378  10.369   7.774  15.202
 9368W        W51379   2.969  14.034   8.342
 9369W        W51380   4.009  11.204   8.852
 9370W        W51381  10.649   0.764   1.568
 9371W        W51382  19.929   7.684   9.432
 9372W        W51383  21.959   4.184   9.552
 9373W        W51384   2.739  24.651   8.562
 9374W        W51385  10.659   3.204   1.068
 9375W        W51386  24.409   3.174   0.338
 9376W        W51387   3.479  14.924  10.262
 9377W        W51388  23.699  11.084   0.718
 9378W        W51389  24.059  19.914  11.822
 9379W        W51390  20.049   4.294   8.982
 9380W        W51391   9.749  18.184   0.218
 9381W        W51392  10.869   2.094   3.892
 9382W        W51393   2.379  19.944  10.742
 9383W        W51394  21.359  13.364  10.562
 9384W        W51395  23.279  13.184   3.712
 9385W        W51396  12.469  21.681   1.488
 9386W        W51397  14.909   1.894   1.208
 9387W        W51398   8.279  25.011   1.238
 9388W        W51399  24.489  20.834   8.292
 9389W        W51400   8.049  10.594   1.178
 9390W        W51401  10.629   4.354   9.432
 9391W        W51402   5.069  13.504  15.692
 9392W        W51403   1.339   8.484   0.618
 9393W        W51404  22.319  15.494   9.782
 9394W        W51405   3.489  22.941   3.162
 9395W        W51406  11.439  20.794  15.322
 9396W        W51407  13.129  19.624   4.082
 9397W        W51408   0.949   7.534   9.562
 9398W        W51409  19.459  21.361   8.012
 9399W        W51410  15.019   8.044  15.522
 9400W        W51411   3.699  12.014   7.622
 9401W        W51412   6.419  14.304  10.412
 9402W        W51413  11.379  10.924   3.482
 9403W        W51414  20.549  23.951   8.622
 9404W        W51415  20.059  13.484   8.862
 9405W        W51416  14.949   1.794  15.082
 9406W        W51417  22.829  24.091   0.768
 9407W        W51418  23.509  25.501  15.542
 9408W        W51419  14.339  20.664  10.352
 9409W        W51420  11.549  15.904   9.442
 9410W        W51421  22.859  15.654   9.752
 9411W        W51422  10.339   1.534   1.188
 9412W        W51423  24.549  21.571   7.782
 9413W        W51424  21.179   3.394   7.182
 9414W        W51425   0.439  12.514  10.892
 9415W        W51426   0.011  18.014   2.612
 9416W        W51427   5.469   1.824   1.028
 9417W        W51428  21.089  19.124   1.308
 9418W        W51429   2.299  15.484   7.592
 9419W        W51430   5.059  22.931   0.348
 9420W        W51431  16.369  15.454  11.832
 9421W        W51432   1.269  20.094   8.192
 9422W        W51433  11.509  22.221   4.422
 9423W        W51434  13.699  19.254   8.672
 9424W        W51435   3.249  20.254   0.408
 9425W        W51436   3.059   7.354   0.118
 9426W        W51437   4.659  14.714  10.962
 9427W        W51438  20.909  19.294   2.842
 9428W        W51439   6.669   1.704   0.588
 9429W        W51440  11.859  14.874  14.902
 9430W        W51441  12.919  10.934  14.352
 9431W        W51442   3.249  17.754   1.998
 9432W        W51443  21.049   1.804   0.448
 9433W        W51444   7.669  12.544   8.342
 9434W        W51445   5.519  20.884  11.892
 9435W        W51446   2.399   6.924   7.802
 9436W        W51447  12.629   3.154  15.412
 9437W        W51448   2.539  12.494   9.672
 9438W        W51449   5.139  16.554  11.672
 9439W        W51450  17.719   7.274   9.372
 9440W        W51451  17.789  22.621   2.802
 9441W        W51452   6.199  23.971   0.218
 9442W        W51453   1.669   7.414   8.082
 9443W        W51454   0.969  22.161   7.692
 9444W        W51455   1.089  12.194   8.532
 9445W        W51456  23.619  23.861   9.552
 9446W        W51457   6.909  22.031   8.052
 9447W        W51458   3.729  13.244   1.218
 9448W        W51459  23.849  15.294   7.762
 9449W        W51460   9.329  16.444   8.242
 9450W        W51461  20.319   2.744   2.278
 9451W        W51462  17.399  18.964   3.692
 9452W        W51463  12.309  19.004   5.212
 9453W        W51464   9.269   3.244   0.448
 9454W        W51465  18.739  14.854   9.482
 9455W        W51466  12.589   2.704   9.342
 9456W        W51467  21.039  23.481   9.132
 9457W        W51468   6.459  24.981   2.178
 9458W        W51469   0.539   5.614   8.082
 9459W        W51470   3.559  12.544   2.902
 9460W        W51471  19.449  12.244   2.108
 9461W        W51472   5.539  24.141   1.628
 9462W        W51473   8.929  21.064   3.742
 9463W        W51474  14.399  11.854   3.152
 9464W        W51475  11.479  14.274   0.088
 9465W        W51476  24.879  22.871   3.072
 9466W        W51477   3.999  16.294  10.332
 9467W        W51478   8.269  20.844  15.412
 9468W        W51479  24.609  15.934   8.822
 9469W        W51480  17.949   4.964  15.752
 9470W        W51481  19.319  16.224   1.078
 9471W        W51482  22.779  10.934   0.778
 9472W        W51483  16.139  25.261   1.408
 9473W        W51484  14.979  11.684   1.518
 9474W        W51485   8.119  16.964   0.798
 9475W        W51486  10.519  10.954   3.302
 9476W        W51487  23.539  19.094  11.862
 9477W        W51488  14.239   7.074   2.208
 9478W        W51489  22.669  12.364   1.298
 9479W        W51490  19.969   5.584   0.408
 9480W        W51491  19.239  20.554   8.982
 9481W        W51492  20.019  21.224   0.948
 9482W        W51493  14.939  25.241  10.372
 9483W        W51494  24.339   8.444   0.668
 9484W        W51495   5.429   2.804   0.858
 9485W        W51496  15.079  20.634   7.792
 9486W        W51497  19.039  23.491   8.762
 9487W        W51498  11.579  25.371   3.852
 9488W        W51499  12.469  22.921   0.658
 9489W        W51500  21.409  20.664   7.612
 9490W        W51501   8.099  25.551   2.168
 9491W        W51502  18.639  24.151   9.332
 9492W        W51503   8.189   3.884   9.762
 9493W        W51504   1.559  18.724   1.068
 9494W        W51505  22.789  19.594  11.292
 9495W        W51506  11.939  17.754   0.948
 9496W        W51507   0.041   7.434   7.392
 9497W        W51508  21.399   0.314   1.548
 9498W        W51509  23.349  16.244  11.202
 9499W        W51510  19.259  22.621   1.808
 9500W        W51511  24.299  17.794  12.112
 9501W        W51512   3.559   2.134   2.802
 9502W        W51513  21.829  11.324   0.708
 9503W        W51514  24.359  16.984  11.732
 9504W        W51515  15.949  11.644   3.502
 9505W        W51516  10.229  23.521  10.162
 9506W        W51517  21.899  12.564   0.918
 9507W        W51518  17.829  12.944  11.262
 9508W        W51519  17.269  11.224   1.548
 9509W        W51520   9.729  16.864   0.248
 9510W        W51521   3.729   0.454   1.148
 9511W        W51522  16.329  14.604   9.802
 9512W        W51523  18.009  24.141   9.962
 9513W        W51524  15.669   8.634  15.712
 9514W        W51525  15.279  24.721   9.362
 9515W        W51526   2.529  24.671   2.228
 9516W        W51527  11.949  18.444   0.478
 9517W        W51528  24.969  23.571   2.592
 9518W        W51529  24.579   0.374   9.552
 9519W        W51530  17.279  14.694   1.748
 9520W        W51531   6.639  25.341   3.072
 9521W        W51532  22.479  18.684  11.562
 9522W        W51533  10.799   3.074   3.302
 9523W        W51534   5.299  16.574  10.822
 9524W        W51535  15.329  16.964   1.968
 9525W        W51536  20.839  24.111   1.438
 9526W        W51537   1.309  12.824   9.882
 9527W        W51538   1.419   7.274   7.702
 9528W        W51539   9.469  14.244   4.582
 9529W        W51540   6.399  11.884   1.118
 9530W        W51541  15.099   7.594   9.482
 9531W        W51542   0.749   1.284  10.142
 9532W        W51543  10.869   7.664  14.992
 9533W        W51544  15.139   8.524  15.712
 9534W        W51545  24.959  23.141   9.142
 9535W        W51546  23.589   1.494   2.218
 9536W        W51547  15.199  15.104   0.008
 9537W        W51548  17.739  23.581   2.912
 9538W        W51549   9.759  12.404   3.342
 9539W        W51550   3.969  14.354  15.692
 9540W        W51551   7.219  11.074   3.302
 9541W        W51552  20.359  18.034   0.588
 9542W        W51553  18.739   5.324   8.842
 9543W        W51554  24.149  20.644   2.188
 9544W        W51555  10.099  18.354  10.142
 9545W        W51556   3.409  18.024   9.602
 9546W        W51557  10.429   5.694   4.262
 9547W        W51558   4.599   9.654   9.282
 9548W        W51559   5.419  24.041   3.422
 9549W        W51560  19.569  14.334   1.438
 9550W        W51561  20.259   5.314   2.892
 9551W        W51562   5.019  19.354   1.498
 9552W        W51563  11.609  16.384   2.952
 9553W        W51564  14.389   4.364   9.252
 9554W        W51565  12.619  12.764  14.352
 9555W        W51566  17.139   0.114  11.232
 9556W        W51567  18.619  12.734   2.338
 9557W        W51568  20.969  21.234  11.822
 9558W        W51569  14.139  23.011   2.632
 9559W        W51570   6.909  16.494  11.592
 9560W        W51571  13.109   7.334   1.508
 9561W        W51572  17.109  12.154   0.918
 9562W        W51573  17.849   6.534  11.392
 9563W        W51574  18.089  23.411   3.972
 9564W        W51575  24.739  21.751   3.542
 9565W        W51576  21.309  11.104   1.128
 9566W        W51577  12.309   3.224   8.672
 9567W        W51578  12.279  24.001   9.922
 9568W        W51579  16.939  24.221   2.872
 9569W        W51580   2.679  19.704   0.958
 9570W        W51581  12.509  24.481  10.672
 9571W        W51582   0.769   4.134   8.112
 9572W        W51583   7.419   2.554   1.328
 9573W        W51584  21.549   7.614   4.002
 9574W        W51585  17.819   2.394  11.272
 9575W        W51586  24.739  25.271   4.622
 9576W        W51587  18.179   9.264   2.612
 9577W        W51588  18.349   2.024  10.792
 9578W        W51589  18.129   9.724   2.358
 9579W        W51590  12.299  17.014   0.258
 9580W        W51591   1.909  15.674  11.332
 9581W        W51592   4.499  21.641   0.478
 9582W        W51593  19.459  21.951   0.628
 9583W        W51594   6.639  14.544   4.022
 9584W        W51595  18.149  16.404   8.152
 9585W        W51596   9.139  25.401  10.112
 9586W        W51597   1.849  16.124   0.668
 9587W        W51598  21.759   2.504   7.372
 9588W        W51599  19.109  23.211   9.342
 9589W        W51600   8.819  17.944   1.838
 9590W        W51601  24.509   7.464   3.602
 9591W        W51602  21.519   1.234   1.298
 9592W        W51603   1.039   9.354   8.392
 9593W        W51604   5.279   7.364   9.322
 9594W        W51605  17.709  24.581   3.952
 9595W        W51606   0.989   9.564   3.092
 9596W        W51607   9.219   1.514   3.012
 9597W        W51608   9.349   2.484   4.552
 9598W        W51609   0.179  23.651   2.418
 9599W        W51610  13.299  14.154   3.482
 9600W        W51611  14.009  16.154   3.022
 9601W        W51612   4.289  11.884   2.188
 9602W        W51613   3.889  15.284   2.682
 9603W        W51614  19.409  21.284   8.532
 9604W        W51615  16.519   1.624   3.412
 9605W        W51616  12.549  12.484   2.148
 9606W        W51617   8.999  14.794   8.822
 9607W        W51618  20.359  17.994  11.582
 9608W        W51619  15.719  15.824   2.398
 9609W        W51620  23.009  21.581   8.982
 9610W        W51621  16.189   9.454   9.802
 9611W        W51622   1.529  23.111   1.478
 9612W        W51623   7.139   8.194  15.192
 9613W        W51624   6.839  24.011   8.412
 9614W        W51625  20.199   1.934   1.738
 9615W        W51626   5.599   2.724  15.122
 9616W        W51627   9.859  20.044   9.922
 9617W        W51628   5.759   1.024   0.618
 9618W        W51629   0.559  20.574  10.242
 9619W        W51630   2.789   2.604   8.252
 9620W        W51631  12.809  24.041  10.172
 9621W        W51632  24.789  13.154  11.282
 9622W        W51633  13.409  15.944  11.132
 9623W        W51634  24.689   4.734   9.912
 9624W        W51635   5.809  11.224   0.118
 9625W        W51636   2.439  17.344  12.032
 9626W        W51637   7.979   1.664   0.928
 9627W        W51638   5.059  22.251  15.392
 9628W        W51639   4.759  20.154  15.532
 9629W        W51640   1.769   7.584   9.172
 9630W        W51641   0.769  11.254   9.032
 9631W        W51642  18.419  13.964  10.132
 9632W        W51643   0.139   2.594  11.432
 9633W        W51644  22.399  18.124  10.752
 9634W        W51645   2.819   4.244  14.922
 9635W        W51646  10.279   0.124  15.442
 9636W        W51647   2.009  15.344   8.552
 9637W        W51648  10.529  23.681   9.792
 9638W        W51649  19.039  14.034   8.812
 9639W        W51650  13.089  15.994  15.462
 9640W        W51651  16.989  20.764   1.738
 9641W        W51652   9.919  10.914  15.502
 9642W        W51653  18.289   9.174  14.972
 9643W        W51654   8.459  13.894  11.232
 9644W        W51655  11.799  10.934  15.492
 9645W        W51656  15.329  10.604   9.552
 9646W        W51657   0.629  10.824  11.092
 9647W        W51658  10.159   9.714   3.862
 9648W        W51659  14.429   2.034   1.488
 9649W        W51660  10.649  23.671   0.748
 9650W        W51661  21.749  25.531   9.892
 9651W        W51662   0.359  22.521  11.012
 9652W        W51663  14.449   2.574  14.712
 9653W        W51664  22.589  17.694   3.442
 9654W        W51665  21.059   8.224   3.632
 9655W        W51666  10.269  20.644   9.622
 9656W        W51667   3.909  20.994   9.532
 9657W        W51668   2.859   0.624   8.312
 9658W        W51669  21.269   6.374   1.198
 9659W        W51670  15.419  19.464  10.992
 9660W        W51671  23.319   9.894  10.372
 9661W        W51672  22.519  19.854   1.618
 9662W        W51673  19.459   1.864  15.712
 9663W        W51674  10.359   8.484   4.452
 9664W        W51675  23.299   3.334   8.662
 9665W        W51676   7.589  25.211   2.732
 9666W        W51677   7.409  13.354   9.332
 9667W        W51678  14.219  13.034  15.222
 9668W        W51679  23.259  17.434  11.342
 9669W        W51680  18.509  23.791   2.218
 9670W        W51681  18.059   1.934  15.622
 9671W        W51682  10.909   2.244   2.742
 9672W        W51683  14.519  22.471   0.138
 9673W        W51684  25.119  19.184   0.868
 9674W        W51685   9.739   0.354   3.472
 9675W        W51686  14.589   2.084   1.998
 9676W        W51687  14.249  10.634   0.558
 9677W        W51688  12.129   5.804   4.012
 9678W        W51689   0.239   9.984   3.302
 9679W        W51690   4.539   7.594   2.532
 9680W        W51691  21.519  14.784  11.572
 9681W        W51692  21.149  17.854  11.122
 9682W        W51693  25.049   6.684   2.712
 9683W        W51694  16.209   6.284   8.092
 9684W        W51695  20.139  17.704   0.208
 9685W        W51696   6.349   3.304  11.292
 9686W        W51697  20.259   6.374   2.298
 9687W        W51698  13.419   3.704   2.098
 9688W        W51699  19.159   3.454   1.068
 9689W        W51700   8.619   2.314   0.748
 9690W        W51701  18.709   9.854  15.752
 9691W        W51702   2.199  17.184  10.662
 9692W        W51703  20.409  23.611   2.208
 9693W        W51704  16.609  11.294  15.032
 9694W        W51705   4.659  12.734   1.318
 9695W        W51706  18.159  12.934   3.472
 9696W        W51707  10.649   6.544   4.702
 9697W        W51708   0.659  22.431  10.052
 9698W        W51709  10.889   8.014   3.452
 9699W        W51710  10.049   4.164  10.642
 9700W        W51711   0.659   3.684   1.558
 9701W        W51712  13.199  19.424  10.182
 9702W        W51713  11.239  15.054  15.592
 9703W        W51714   5.279   4.844  15.472
 9704W        W51715   4.969  20.964   3.152
 9705W        W51716   3.679   4.614   1.118
 9706W        W51717   5.549  13.784   9.302
 9707W        W51718  17.259   4.194   9.682
 9708W        W51719  10.369   7.464   4.562
 9709W        W51720   0.229   6.054   1.578
 9710W        W51721  15.109  14.244  10.192
 9711W        W51722  19.399  17.394   0.488
 9712W        W51723   5.379  24.151  10.682
 9713W        W51724   1.199  13.514   2.108
 9714W        W51725  17.269  24.021  11.052
 9715W        W51726  21.539   2.714   3.902
 9716W        W51727  21.669   6.934   3.452
 9717W        W51728   6.959  22.181  10.022
 9718W        W51729   0.989   5.914  15.732
 9719W        W51730  20.589  12.754   2.862
 9720W        W51731   9.409  19.544   3.802
 9721W        W51732   7.499  20.594   8.452
 9722W        W51733   6.399   6.984   9.972
 9723W        W51734  25.059  10.244   7.082
 9724W        W51735   4.759  11.254  11.142
 9725W        W51736   2.549   2.494   1.438
 9726W        W51737   3.669  12.854  10.222
 9727W        W51738  13.469  10.144  15.332
 9728W        W51739  18.769  20.814   2.458
 9729W        W51740   2.589  14.204  15.752
 9730W        W51741  21.939  13.714  11.402
 9731W        W51742  20.399  20.844  11.302
 9732W        W51743   7.829   1.834   8.102
 9733W        W51744  20.789  15.184   8.762
 9734W        W51745   3.719   7.354  10.492
 9735W        W51746  17.599   1.164   9.992
 9736W        W51747  16.579  15.164  10.612
 9737W        W51748   3.269  25.001   2.842
 9738W        W51749   5.879  19.494  10.502
 9739W        W51750   3.429   9.384  10.042
 9740W        W51751  15.509  25.561   1.188
 9741W        W51752   5.779  12.264   0.258
 9742W        W51753  16.889   4.104  15.762
 9743W        W51754   3.159   3.874  15.692
 9744W        W51755  13.079   5.354   0.548
 9745W        W51756  13.219   3.334   1.818
 9746W        W51757   1.179  21.194   9.322
 9747W        W51758   7.379  11.164   7.562
 9748W        W51759   3.169  25.011  10.592
 9749W        W51760  13.829  14.414   2.582
 9750W        W51761  11.999  14.504  15.782
 9751W        W51762   1.919  11.404   1.988
 9752W        W51763   4.489  21.044   0.908
 9753W        W51764  19.209   8.734   3.012
 9754W        W51765   6.329   7.314   2.348
 9755W        W51766  15.859   4.734   9.402
 9756W        W51767  17.059  17.924   9.622
 9757W        W51768   6.159  18.884  10.532
 9758W        W51769  17.709  10.234  15.062
 9759W        W51770  21.459  16.994   0.748
 9760W        W51771  10.299  17.194  14.402
 9761W        W51772   6.709   1.264   1.378
 9762W        W51773  11.869  11.174   9.702
 9763W        W51774  12.099   7.904   8.352
 9764W        W51775  20.909  21.661   2.592
 9765W        W51776  25.359   6.224   7.322
 9766W        W51777   5.179  18.314   9.992
 9767W        W51778   3.369  22.221   2.772
 9768W        W51779  18.759   0.594   9.582
 9769W        W51780   4.219  14.384   2.542
 9770W        W51781  20.209  16.444  10.522
 9771W        W51782   9.149  11.574   1.928
 9772W        W51783  25.419   3.984  10.382
 9773W        W51784  11.309  20.504  10.612
 9774W        W51785  14.079   9.454   2.068
 9775W        W51786   5.199   9.654   2.802
 9776W        W51787  18.129  14.064   1.078
 9777W        W51788   1.409  17.534   3.902
 9778W        W51789   3.269  11.284   1.448
 9779W        W51790  23.049   8.834  15.722
 9780W        W51791   7.379  16.534   2.912
 9781W        W51792  20.969  18.644  15.772
 9782W        W51793  17.789  18.084   2.602
 9783W        W51794   0.069   0.584  10.632
 9784W        W51795  25.269   3.154   8.502
 9785W        W51796  18.969   0.524   9.012
 9786W        W51797  22.559   0.484   0.888
 9787W        W51798   8.679  11.424  10.162
 9788W        W51799   4.609  24.731   2.118
 9789W        W51800  13.709   2.964  10.142
 9790W        W51801   6.649   9.564   8.092
 9791W        W51802   5.799  11.354   0.638
 9792W        W51803  20.409  16.964   1.828
 9793W        W51804  17.059  13.334   2.478
 9794W        W51805  11.209   7.464   0.408
 9795W        W51806  22.119  23.681   8.192
 9796W        W51807  19.479  10.044   2.448
 9797W        W51808   1.289  16.994  15.732
 9798W        W51809  10.649  24.291   1.048
 9799W        W51810   5.619   0.924  10.772
 9800W        W51811  25.099   3.604  15.802
 9801W        W51812  15.319  15.944   2.068
 9802W        W51813  21.149   2.454   1.018
 9803W        W51814  13.229   4.584  15.302
 9804W        W51815   0.049  16.634   0.478
 9805W        W51816   6.429  23.141   8.782
 9806W        W51817   1.119   6.504   6.332
 9807W        W51818   7.499  21.561   1.498
 9808W        W51819  13.659  14.124   2.148
 9809W        W51820  11.269  14.334   1.718
 9810W        W51821  19.329   9.574   1.898
 9811W        W51822  13.889   8.244   9.382
 9812W        W51823   6.159  13.284   2.228
 9813W        W51824  10.549  24.231   3.172
 9814W        W51825  16.589  12.544  14.612
 9815W        W51826   9.239   7.624   9.842
 9816W        W51827  20.359  14.404  11.862
 9817W        W51828  14.959  21.481  10.522
 9818W        W51829   1.149   7.564   9.112
 9819W        W51830  22.389   1.334   9.442
 9820W        W51831   6.769  24.991   9.192
 9821W        W51832  17.989   3.074   1.968
 9822W        W51833  10.859  12.714   4.482
 9823W        W51834   5.739   2.124   9.602
 9824W        W51835   9.129  17.924   1.428
 9825W        W51836  10.979   9.774   3.702
 9826W        W51837   4.959   3.344  15.612
 9827W        W51838  20.729   4.704   9.652
 9828W        W51839   3.029  18.084   3.092
 9829W        W51840   4.539   6.314   8.772
 9830W        W51841  11.639  20.224   3.962
 9831W        W51842   4.659   8.114  10.302
 9832W        W51843   0.429   5.174   2.602
 9833W        W51844   7.629  20.554   3.702
 9834W        W51845  20.399   7.484   3.482
 9835W        W51846   6.769  16.124   3.642
 9836W        W51847  11.389   3.214   3.292
 9837W        W51848   0.539   3.214  11.072
 9838W        W51849   6.519  21.294  11.952
 9839W        W51850  14.009  14.304   3.122
 9840W        W51851  24.989  16.444   0.938
 9841W        W51852  23.039   6.734   2.972
 9842W        W51853   7.669  12.004   3.302
 9843W        W51854  15.799  11.004  15.852
 9844W        W51855  15.629  24.971   7.552
 9845W        W51856  20.419  10.274   8.522
 9846W        W51857  17.139  19.524   9.252
 9847W        W51858  22.719  16.884  12.142
 9848W        W51859  20.679   1.114   9.482
 9849W        W51860   7.249  23.891   1.638
 9850W        W51861   8.419  11.714   9.832
 9851W        W51862   9.149  14.044   1.318
 9852W        W51863  19.499   3.394  11.162
 9853W        W51864  18.339   7.634   3.002
 9854W        W51865   1.139   4.334  15.832
 9855W        W51866   0.559  17.384   3.382
 9856W        W51867  14.979  15.954   9.112
 9857W        W51868  20.829   9.514   8.872
 9858W        W51869  16.129  10.574   3.412
 9859W        W51870   2.939  18.804   0.608
 9860W        W51871  13.249   2.214   1.288
 9861W        W51872  17.449   8.044   1.088
 9862W        W51873  19.289  20.114   8.702
 9863W        W51874   7.839   9.264  10.302
 9864W        W51875  10.049  11.504   3.782
 9865W        W51876  21.409  14.244   1.538
 9866W        W51877  21.389   9.114   2.702
 9867W        W51878   9.409   1.924   8.762
 9868W        W51879   3.479   9.434  15.202
 9869W        W51880   4.849   6.044   1.478
 9870W        W51881  22.179  16.644  10.452
 9871W        W51882   2.159   1.494  10.562
 9872W        W51883  18.309   1.254   3.582
 9873W        W51884   6.989  15.874   9.512
 9874W        W51885  17.809  15.104  15.232
 9875W        W51886  20.519  11.734   8.762
 9876W        W51887   8.259  21.361   3.022
 9877W        W51888   7.209   7.284  10.052
 9878W        W51889  20.779   6.904   0.618
 9879W        W51890  19.409  25.161  12.232
 9880W        W51891  24.379   3.774   2.358
 9881W        W51892   6.449   4.314   3.252
 9882W        W51893  17.289  21.651   3.482
 9883W        W51894  24.999   4.324   9.822
 9884W        W51895   5.539  20.724  14.972
 9885W        W51896  24.879  18.234   1.888
 9886W        W51897   3.949   8.434   7.912
 9887W        W51898   2.009   9.924   8.642
 9888W        W51899  20.919  21.144   3.142
 9889W        W51900  21.789  10.934   1.048
 9890W        W51901  16.209   5.764   4.012
 9891W        W51902  25.409  20.714   9.212
 9892W        W51903  24.279  19.734   0.628
 9893W        W51904  18.419   1.044   1.568
 9894W        W51905  18.659   7.504   1.438
 9895W        W51906  13.349  15.264   1.628
 9896W        W51907  10.969  23.531  10.152
 9897W        W51908  10.229  22.741  15.722
 9898W        W51909  19.259   5.514  10.452
 9899W        W51910  14.899  17.534   0.058
 9900W        W51911   8.489  11.994   1.638
 9901W        W51912   9.389   0.694  10.742
 9902W        W51913  20.749   7.374   0.488
 9903W        W51914  15.439   9.514   1.198
 9904W        W51915  10.299  14.034   0.918
 9905W        W51916  17.799  18.534   8.532
 9906W        W51917  19.719   6.444   3.572
 9907W        W51918   2.359  10.314  15.202
 9908W        W51919  13.559   0.024  15.542
 9909W        W51920  12.049  17.844   0.458
 9910W        W51921  22.239  25.111  10.552
 9911W        W51922  18.139  16.304  15.692
 9912W        W51923  19.139   1.064  10.192
 9913W        W51924  17.139  13.994   9.982
 9914W        W51925  11.369  11.544  14.822
 9915W        W51926  23.179   7.714   2.268
 9916W        W51927  23.599   6.824   2.672
 9917W        W51928   0.959   4.664   9.802
 9918W        W51929  20.639   3.854   0.878
 9919W        W51930  19.889   9.204   0.008
 9920W        W51931   1.589   1.114  10.952
 9921W        W51932  25.129  19.824   0.828
 9922W        W51933   6.229  15.904  15.322
 9923W        W51934  12.039   2.034   8.742
 9924W        W51935   9.849  15.944   0.608
 9925W        W51936   6.389   3.484   1.028
 9926W        W51937  22.969  12.024   2.158
 9927W        W51938  11.869   8.294   4.252
 9928W        W51939  16.339   6.844   3.402
 9929W        W51940  21.859  11.194   0.248
 9930W        W51941  11.199  24.861   0.428
 9931W        W51942   1.739  25.251  11.732
 9932W        W51943   9.239  23.581   3.742
 9933W        W51944  24.929  12.114   3.462
 9934W        W51945  23.259   6.394   8.912
 9935W        W51946  18.739  12.294   9.872
 9936W        W51947  21.499  15.084  11.092
 9937W        W51948  21.089   9.044  10.392
 9938W        W51949  10.079  17.194  15.792
 9939W        W51950  15.109  17.584   1.278
 9940W        W51951   3.519  13.594   1.568
 9941W        W51952  24.059   3.914   1.978
 9942W        W51953  13.039  18.794  11.522
 9943W        W51954  11.729  13.714   4.982
 9944W        W51955  25.089   9.714   0.338
 9945W        W51956  19.759   6.644   8.042
 9946W        W51957   9.079   0.614   4.072
 9947W        W51958  12.529  17.304  15.672
 9948W        W51959  16.299   4.394   8.102
 9949W        W51960  22.049  24.661  10.392
 9950W        W51961   2.639  21.361  10.922
 9951W        W51962  17.509  19.024  11.392
 9952W        W51963  22.689  23.911   9.172
 9953W        W51964  11.179   0.764   0.548
 9954W        W51965   5.579  17.994   2.972
 9955W        W51966   4.769   7.424   7.732
 9956W        W51967   6.599  14.354   0.648
 9957W        W51968   4.219   8.654   2.872
 9958W        W51969   1.649  11.124   4.182
 9959W        W51970  18.019   8.324   2.712
 9960W        W51971  16.939   7.054   2.098
 9961W        W51972  19.429  11.644   3.462
 9962W        W51973  23.419   1.734   1.678
 9963W        W51974   0.829  19.284  11.182
 9964W        W51975   6.809  15.454   3.372
 9965W        W51976   6.199   8.684  15.772
 9966W        W51977   6.129   6.414  15.632
 9967W        W51978  12.659  24.871   0.418
 9968W        W51979   4.969  15.614  10.472
 9969W        W51980  23.769   3.284  15.332
 9970W        W51981  19.769  23.181   3.202
 9971W        W51982  10.109   6.454   9.282
 9972W        W51983   2.879  16.834   8.382
 9973W        W51984   2.939   3.274   9.662
 9974W        W51985  22.839  19.004   2.992
 9975W        W51986  19.999  25.191   1.488
 9976W        W51987   8.449  22.601   0.608
 9977W        W51988   4.139  19.554  15.272
 9978W        W51989   5.019  24.881   0.478
 9979W        W51990  13.499   1.654  11.082
 9980W        W51991  22.659  20.734   9.352
 9981W        W51992   7.389   1.664   0.088
 9982W        W51993  22.099  23.601  11.952
 9983W        W51994   6.299  14.774   1.468
 9984W        W51995  13.109  20.234   3.442
 9985W        W51996  19.179  15.724   2.008
 9986W        W51997  24.169  19.184   2.408
 9987W        W51998  24.179  24.571   3.882
 9988W        W51999   3.299  15.884  10.252
 9989W        W52000  13.199   9.374   1.748
 9990W        W52001  22.189  18.594  15.762
 9991W        W52002   6.649  10.054   0.678
 9992W        W52003  16.889   4.704   2.348
 9993W        W52004  13.019  15.624   1.908
 9994W        W52005   7.319   8.284   8.262
 9995W        W52006   4.039   5.424   1.198
 9996W        W52007  23.039   0.394   2.208
 9997W        W52008  14.529  17.414   2.592
 9998W        W52009  17.659  19.844   1.708
 9999W        W52010  23.239  25.181   8.442
10000W        W52011  25.089  19.424   9.392
10001W        W52012  13.879   9.964   9.752
10002W        W52013   4.369  21.711   9.342
10003W        W52014  20.099  25.071  11.902
10004W        W52015   6.609   8.994   8.362
10005W        W52016  14.869   3.534  10.832
10006W        W52017   1.019  13.214   8.432
10007W        W52018   7.699   4.004   9.482
10008W        W52019  20.899  10.924  11.102
10009W        W52020   9.939   9.154  15.232
10010W        W52021   1.919   7.044  10.332
10011W        W52022   9.759  11.034  11.442
10012W        W52023   2.809   8.994  15.562
10013W        W52024   6.709  22.331   0.958
10014W        W52025  24.549   7.834  15.822
10015W        W52026   5.069  15.504  11.552
10016W        W52027   7.619  24.671   1.228
10017W        W52028   8.009  20.384  15.522
10018W        W52029  25.409  24.131   8.242
10019W        W52030   7.699   1.264   3.882
10020W        W52031   5.079   8.754  11.032
10021W        W52032  24.549   1.264   9.382
10022W        W52033   5.919   0.544   0.868
10023W        W52034   0.189  22.771   1.928
10024W        W52035  14.099   0.444   8.392
10025W        W52036   8.539  19.614   9.132
10026W        W52037  10.889  17.824   9.922
10027W        W52038   8.619  10.024   8.952
10028W        W52039   9.079  21.244  15.812
10029W        W52040   3.769  16.344   8.822
10030W        W52041  20.979  12.204   8.002
10031W        W52042   5.829  21.044   8.482
10032W        W52043  15.379  14.634  10.512
10033W        W52044  24.929   0.074   8.462
10034W        W52045  23.469   6.764   7.892
10035W        W52046   6.429   0.094   8.742
10036W        W52047  17.469   1.664   9.662
10037W        W52048  13.319  17.304   7.902
10038W        W52049  20.519  12.884   8.562
10039W        W52050  17.149  12.064   0.088
10040W        W52051  13.989  15.384  15.762
10041W        W52052  21.139  13.804   3.102
10042W        W52053  24.449  24.801   1.738
10043W        W52054   1.919  14.564   0.738
10044W        W52055  15.279  19.054   0.568
10045W        W52056  23.599  21.611  10.222
10046W        W52057   6.679  23.331  10.942
10047W        W52058   0.329   7.474   2.228
10048W        W52059  22.719  16.234   1.068
10049W        W52060  10.659   2.364   9.462
10050W        W52061  13.839   1.404   0.758
10051W        W52062   6.899   0.634  15.822
10052W        W52063  24.359  10.264  11.792
10053W        W52064  16.749   8.834   3.972
10054W        W52065   1.969   9.564   8.132
10055W        W52066   0.319   8.784   1.068
10056W        W52067  13.569   7.174   2.802
10057W        W52068  21.959  23.281   7.502
10058W        W52069   4.179  24.271   7.922
10059W        W52070  14.639  20.104   1.978
10060W        W52071  14.729  24.411  10.902
10061W        W52072   8.079   0.124  10.352
10062W        W52073  20.699   2.504   2.792
10063W        W52074  22.819   3.414   3.362
10064W        W52075   1.249  16.164   9.552
10065W        W52076  19.999  22.341   9.052
10066W        W52077  23.669   5.574  10.872
10067W        W52078  25.529  15.794  11.262
10068W        W52079  24.299  19.564  10.982
10069W        W52080  12.759  19.824   3.372
10070W        W52081  24.319  22.251  11.522
10071W        W52082  20.759  17.724   9.372
10072W        W52083   8.319  12.644   3.592
10073W        W52084   6.119  20.874   2.158
10074W        W52085  17.049   7.894   2.048
10075W        W52086  19.299  12.424   0.598
10076W        W52087  18.009  19.234  10.782
10077W        W52088   8.459  10.904   0.998
10078W        W52089   0.389  19.044  11.332
10079W        W52090   2.829   4.084   9.782
10080W        W52091  10.419  18.954   4.222
10081W        W52092   5.929  14.044   8.582
10082W        W52093  17.379  15.404  10.932
10083W        W52094  10.849  10.544   9.932
10084W        W52095  23.019   7.004   7.932
10085W        W52096   7.109  15.864  10.932
10086W        W52097  18.129   5.714   8.502
10087W        W52098   3.369   8.594   9.612
10088W        W52099  24.539  16.754   0.538
10089W        W52100   5.669  13.144   9.782
10090W        W52101  18.729   2.704  10.082
10091W        W52102  21.889   1.074   3.122
10092W        W52103  20.709   7.884   2.572
10093W        W52104  15.189   8.914   3.932
10094W        W52105   4.919  13.314   0.278
10095W        W52106   2.089  13.894   8.612
10096W        W52107  21.659   0.354   2.088
10097W        W52108   0.989  24.341   2.338
10098W        W52109   0.059   7.294   7.852
10099W        W52110   4.939  21.781   0.518
10100W        W52111  16.379   1.074   1.828
10101W        W52112  13.319   0.444  10.792
10102W        W52113   5.709   9.344   9.942
10103W        W52114   6.489   0.034   1.418
10104W        W52115  12.099  22.631  11.812
10105W        W52116  23.209  23.131  10.412
10106W        W52117  10.769  22.921   3.112
10107W        W52118  18.469   5.334  10.092
10108W        W52119  21.619   4.204   1.498
10109W        W52120   6.589  19.694  10.692
10110W        W52121   8.029  17.134   1.308
10111W        W52122  18.279   0.794   3.392
10112W        W52123  19.619  25.521   1.328
10113W        W52124  17.379  22.771   2.652
10114W        W52125  22.149  23.031  15.742
10115W        W52126   7.199   7.404   2.338
10116W        W52127  12.179  21.214   2.228
10117W        W52128  25.229   3.394   7.512
10118W        W52129  20.359  22.231   8.682
10119W        W52130  15.969  22.571   1.368
10120W        W52131   1.019   2.344  10.642
10121W        W52132   9.299  23.751  10.742
10122W        W52133  10.159   8.334   2.992
10123W        W52134  15.219  16.954   8.302
10124W        W52135  14.899   7.774   0.438
10125W        W52136  24.329   5.374  11.112
10126W        W52137  16.829  13.994   4.742
10127W        W52138   1.679  10.264  11.782
10128W        W52139  19.969  10.484   7.642
10129W        W52140   7.789  16.024  15.272
10130W        W52141  19.469   7.054  11.282
10131W        W52142  12.089   8.734   9.392
10132W        W52143  11.219  18.654   9.832
10133W        W52144  18.499   2.424   8.572
10134W        W52145  19.289  20.084   7.292
10135W        W52146   1.849  17.864  11.302
10136W        W52147  18.839  16.854  11.262
10137W        W52148   1.599  13.304   0.848
10138W        W52149  21.919  25.081   1.768
10139W        W52150  15.509  10.874   9.012
10140W        W52151   0.099  19.434   8.552
10141W        W52152   5.569   4.734   9.612
10142W        W52153  10.439   2.884   1.698
10143W        W52154  16.219  23.201   1.978
10144W        W52155   6.539   3.674   8.622
10145W        W52156  22.289   6.174   3.952
10146W        W52157  22.509  14.644   1.958
10147W        W52158  15.219  22.061  15.172
10148W        W52159   2.199  18.074   1.878
10149W        W52160   3.739   7.734   2.158
10150W        W52161  11.439  22.141   3.342
10151W        W52162   8.289  12.534  15.202
10152W        W52163   0.699  14.244   3.122
10153W        W52164  23.579   8.964   7.732
10154W        W52165  13.789  23.251   0.688
10155W        W52166  16.259  18.574   2.882
10156W        W52167  10.009   6.254   8.652
10157W        W52168  24.479  17.414   9.402
10158W        W52169   3.509  10.134   7.782
10159W        W52170   0.829  15.794   1.138
10160W        W52171  18.179  24.091  11.502
10161W        W52172  17.189  20.594   9.732
10162W        W52173  10.149   3.834   1.488
10163W        W52174  22.039  16.374   3.442
10164W        W52175  15.299  21.631  11.232
10165W        W52176  18.839  11.104   2.408
10166W        W52177   7.849   3.394   1.568
10167W        W52178  25.119  11.744   0.458
10168W        W52179   5.139   8.404   3.502
10169W        W52180  24.539  11.864   3.772
10170W        W52181  22.459  16.694  10.992
10171W        W52182  20.029  22.791  11.362
10172W        W52183  15.329   0.534   9.242
10173W        W52184  24.469   3.784   1.638
10174W        W52185   3.609   1.874   8.422
10175W        W52186   6.319   4.704  15.362
10176W        W52187   9.589  20.754   0.998
10177W        W52188  21.609   7.764   2.812
10178W        W52189  17.309  23.461  15.732
10179W        W52190   4.459  13.884   3.232
10180W        W52191  19.719  25.501  11.972
10181W        W52192   5.459   5.584   9.382
10182W        W52193  25.139  25.011   1.998
10183W        W52194  19.169   2.954   1.188
10184W        W52195   6.479   4.834  10.162
10185W        W52196  25.409  11.304  11.182
10186W        W52197  20.789  22.521   1.108
10187W        W52198  18.339  22.731  11.102
10188W        W52199  24.449  11.794   8.582
10189W        W52200  15.259  14.164   1.008
10190W        W52201   7.799   6.174   3.582
10191W        W52202   3.389   3.094  15.062
10192W        W52203   6.419  16.264   3.342
10193W        W52204  22.699  20.684   1.908
10194W        W52205  12.199  16.184   1.808
10195W        W52206   0.229  18.084   7.052
10196W        W52207  19.389  22.181   3.122
10197W        W52208  20.959  19.614   9.532
10198W        W52209  10.789  17.164   0.258
10199W        W52210  18.759  16.194   8.872
10200W        W52211   5.319   3.944   1.668
10201W        W52212   5.049   5.534   0.408
10202W        W52213  20.939  12.404   9.482
10203W        W52214   8.499   5.414   1.878
10204W        W52215   6.919  20.204   2.802
10205W        W52216  22.399  22.891   8.802
10206W        W52217   4.289  13.444  10.332
10207W        W52218  15.789  24.001   8.252
10208W        W52219   1.339   3.114   1.158
10209W        W52220   3.329   9.254   8.022
10210W        W52221   9.919   2.514   2.408
10211W        W52222   1.599  14.924  10.782
10212W        W52223   2.859  20.024   0.478
10213W        W52224  17.859  11.464   2.158
10214W        W52225  16.409  22.471  10.992
10215W        W52226  21.679  17.664   3.252
10216W        W52227   0.919  13.644   0.258
10217W        W52228   7.879  24.531  10.862
10218W        W52229   4.229   1.594   8.792
10219W        W52230   7.249  13.674  10.262
10220W        W52231   9.529  22.371   3.632
10221W        W52232  20.199   7.744   9.012
10222W        W52233  20.439   0.244  11.362
10223W        W52234   7.629  18.194   3.392
10224W        W52235  16.429   3.144  10.462
10225W        W52236   8.219   4.494   8.852
10226W        W52237  11.169   9.074   3.542
10227W        W52238  17.759  10.504   9.142
10228W        W52239   0.759  22.951   0.438
10229W        W52240  12.699   0.974  10.032
10230W        W52241  16.799  17.144   9.412
10231W        W52242   7.249  21.601   1.998
10232W        W52243  25.309  17.924  10.202
10233W        W52244  18.989   3.144   9.992
10234W        W52245   7.379   6.834  10.072
10235W        W52246   4.639   2.874   2.762
10236W        W52247  10.769   7.474   0.148
10237W        W52248   4.639  22.771   0.078
10238W        W52249   4.529  14.734   9.142
10239W        W52250  21.399  24.781   1.068
10240W        W52251   1.629   3.214  10.232
10241W        W52252   8.779  13.004   9.882
10242W        W52253  18.839  14.054   2.722
10243W        W52254  22.979  20.404  11.842
10244W        W52255   0.719  12.164   9.362
10245W        W52256  15.509  24.381   8.312
10246W        W52257   2.709  19.724   1.918
10247W        W52258   3.159  20.164   9.022
10248W        W52259  12.329  23.871   1.928
10249W        W52260   2.849  17.344   8.522
10250W        W52261   1.239  16.864   1.658
10251W        W52262   9.209  10.584   0.758
10252W        W52263   8.949  23.071   0.038
10253W        W52264  24.709  19.454   0.758
10254W        W52265  24.979  21.701   2.238
10255W        W52266  10.249   7.684   2.822
10256W        W52267  11.209  21.451  10.942
10257W        W52268  25.459  14.594  10.522
10258W        W52269  16.869   6.134   4.722
10259W        W52270   0.399   0.934   2.992
10260W        W52271  19.979   1.064   2.852
10261W        W52272  17.299  19.974   2.572
10262W        W52273  12.379  23.381   1.388
10263W        W52274  12.349   1.274   1.088
10264W        W52275   6.469  21.911   2.782
10265W        W52276  20.059   4.674   0.628
10266W        W52277  23.399   8.064   7.832
10267W        W52278   1.669   2.854   7.612
10268W        W52279  14.409   3.144   3.022
10269W        W52280  17.489   0.184   2.368
10270W        W52281  20.279  21.304   7.852
10271W        W52282  21.199  12.024   1.088
10272W        W52283  23.849  24.501  15.862
10273W        W52284   9.609  22.581  15.102
10274W        W52285  24.599   4.964  11.202
10275W        W52286  14.149  20.954   3.192
10276W        W52287   9.589  18.194   2.218
10277W        W52288  18.049   3.704   0.428
10278W        W52289   9.769   7.214   9.202
10279W        W52290  18.999   6.564   2.428
10280W        W52291   7.659   5.284   0.088
10281W        W52292  25.359   6.704   0.148
10282W        W52293  21.159  11.254   2.008
10283W        W52294  14.679  22.991   0.258
10284W        W52295  22.879  11.894   3.222
10285W        W52296  13.959  23.541  15.162
10286W        W52297   2.379  12.734   0.458
10287W        W52298  16.219   1.414   8.472
10288W        W52299  24.639  21.911  11.702
10289W        W52300  15.549   9.904  15.472
10290W        W52301   8.689  16.804   9.602
10291W        W52302  18.629   3.084   1.478
10292W        W52303  14.629   8.464   0.528
10293W        W52304   8.019  21.581   2.612
10294W        W52305  23.909  14.334  12.142
10295W        W52306  11.519  12.384   4.952
10296W        W52307   9.829  22.111   0.238
10297W        W52308  15.879  22.891  11.642
10298W        W52309  23.839  14.134   8.482
10299W        W52310  10.189  12.564  15.462
10300W        W52311  19.679  19.754   9.222
10301W        W52312   2.609  15.584   7.982
10302W        W52313   1.159  21.761  10.362
10303W        W52314   6.339   1.714   8.372
10304W        W52315  21.179  13.904  11.712
10305W        W52316   6.739  17.584   0.128
10306W        W52317  21.589   8.024  10.822
10307W        W52318  25.099  22.841   2.582
10308W        W52319  17.169  16.234   0.468
10309W        W52320   2.599  24.531   9.512
10310W        W52321  19.359   2.894   8.382
10311W        W52322  16.179   4.364   8.992
10312W        W52323  14.879   9.334  11.082
10313W        W52324  19.429  21.931  11.862
10314W        W52325   5.369   9.634  15.752
10315W        W52326  25.269  10.234   2.762
10316W        W52327   3.479  24.231  10.802
10317W        W52328   3.289   6.644   1.048
10318W        W52329   1.869   4.604   9.442
10319W        W52330   5.399   1.014   2.208
10320W        W52331  10.009  13.134  10.712
10321W        W52332   2.149  13.394   9.922
10322W        W52333   8.009  19.804   8.392
10323W        W52334  24.049   0.084  10.332
10324W        W52335  12.759   5.104   0.128
10325W        W52336   5.069   4.944   3.112
10326W        W52337  12.719   8.094  15.352
10327W        W52338   0.319  24.581   1.678
10328W        W52339   7.999  17.004  10.142
10329W        W52340   8.929   5.654  15.762
10330W        W52341  12.759   8.464   8.652
10331W        W52342  14.189  15.974   7.792
10332W        W52343  15.169  23.291  10.492
10333W        W52344   3.609   5.424   9.102
10334W        W52345   3.039   7.974   0.978
10335W        W52346   0.499  17.964  10.842
10336W        W52347   6.659  23.941  15.862
10337W        W52348   0.011   2.724   8.302
10338W        W52349   0.059  25.251   2.622
10339W        W52350  17.589  19.944   3.532
10340W        W52351  24.749   5.744  10.762
10341W        W52352  10.809  18.714   2.478
10342W        W52353  12.879   6.804   1.478
10343W        W52354  12.759  15.814   4.452
10344W        W52355  15.339  17.854  10.512
10345W        W52356   1.719   5.134   7.352
10346W        W52357  19.919   7.994   2.922
10347W        W52358  17.759  21.324   0.948
10348W        W52359  12.659   3.784   0.088
10349W        W52360  17.389  15.984  10.822
10350W        W52361  23.469  22.351   0.818
10351W        W52362  11.699  22.521   4.062
10352W        W52363  11.509  10.624   3.082
10353W        W52364   9.859   7.514  14.932
10354W        W52365  22.879  21.741   1.718
10355W        W52366  18.559   6.924   8.912
10356W        W52367  10.169  14.864  15.032
10357W        W52368  24.779   7.944   7.482
10358W        W52369  22.629   4.404   0.428
10359W        W52370   2.809   6.954   9.432
10360W        W52371  10.279  19.094  15.382
10361W        W52372  19.719   7.384   3.022
10362W        W52373   4.459  24.431   8.562
10363W        W52374   1.749  23.441  11.082
10364W        W52375  16.249   1.874   4.102
10365W        W52376   2.449   4.874   0.818
10366W        W52377  22.599  12.604   1.858
10367W        W52378   4.789   2.824   0.358
10368W        W52379  13.339  17.924   3.692
10369W        W52380  20.459   2.944  10.032
10370W        W52381  20.129  20.664   2.962
10371W        W52382  11.199   0.534   0.988
10372W        W52383   9.229  17.044   0.708
10373W        W52384  23.169  13.554  11.202
10374W        W52385  15.339  11.064   1.178
10375W        W52386  10.929   1.574   4.562
10376W        W52387   0.719  15.224   3.372
10377W        W52388   3.679  11.394   1.678
10378W        W52389  23.279  14.234   1.298
10379W        W52390   5.579   7.944   8.702
10380W        W52391   5.139   0.334   3.942
10381W        W52392   4.729   5.524  11.542
10382W        W52393   5.989  22.521   3.792
10383W        W52394  14.089  22.851   3.422
10384W        W52395  22.219   2.834   0.168
10385W        W52396  24.059  20.134   8.712
10386W        W52397  25.079   4.454   1.138
10387W        W52398  25.389  10.004   1.438
10388W        W52399  16.129   6.124   9.042
10389W        W52400   5.599  22.541   2.448
10390W        W52401  23.369  20.334   0.518
10391W        W52402   5.729  12.314  10.042
10392W        W52403   7.839  11.294   9.142
10393W        W52404  22.739   7.304   2.842
10394W        W52405  13.179  24.981   1.618
10395W        W52406  14.479  19.894  11.842
10396W        W52407  20.019  20.154  10.752
10397W        W52408  19.869  22.541  10.312
10398W        W52409  16.749  18.574  12.182
10399W        W52410  23.039   0.474   1.048
10400W        W52411   0.449  16.844   1.718
10401W        W52412   2.259  14.084   0.188
10402W        W52413  16.879   0.954   9.912
10403W        W52414  19.739   5.144   8.662
10404W        W52415  19.219   2.094   7.632
10405W        W52416  16.579  18.834   2.572
10406W        W52417  19.259   2.604   1.998
10407W        W52418   8.319   8.494   8.972
10408W        W52419  21.269   8.394   9.242
10409W        W52420   6.179  22.981   3.252
10410W        W52421   7.529   9.234  15.782
10411W        W52422  23.699   4.694   9.402
10412W        W52423  10.569  25.071   8.692
10413W        W52424  25.079   6.504   8.782
10414W        W52425  13.999   0.274   0.028
10415W        W52426   4.949  12.384   7.892
10416W        W52427   6.099  14.684  10.562
10417W        W52428  10.239  12.154  15.232
10418W        W52429  20.239   4.564   9.802
10419W        W52430  19.359  17.184   1.888
10420W        W52431  10.529  13.824  15.352
10421W        W52432   3.709   1.454   8.792
10422W        W52433  16.639  12.064   3.322
10423W        W52434  10.819   7.324   8.012
10424W        W52435  17.369   2.084   0.508
10425W        W52436   3.099   8.334  11.022
10426W        W52437  13.489  17.844   9.782
10427W        W52438  16.049  20.484   1.498
10428W        W52439   1.259  17.104   9.232
10429W        W52440  11.079  21.154  15.052
10430W        W52441  21.419  10.254   2.752
10431W        W52442  11.679  22.661   2.802
10432W        W52443  25.479   4.534   8.952
10433W        W52444   3.249   2.144   8.362
10434W        W52445  20.949   8.984   8.022
10435W        W52446   0.639  11.254   2.328
10436W        W52447  21.009  22.991   0.828
10437W        W52448  19.799  19.894   8.722
10438W        W52449  15.039  24.751   1.138
10439W        W52450   3.629   4.084   3.032
10440W        W52451  12.539   4.894   8.792
10441W        W52452   6.909  13.744   3.482
10442W        W52453  16.899  12.544   3.582
10443W        W52454  11.739   6.214  10.392
10444W        W52455  17.739  24.641   9.782
10445W        W52456  20.829  20.554   9.822
10446W        W52457   2.379  24.941   7.142
10447W        W52458  20.559   6.594   2.642
10448W        W52459  10.089  15.484   2.488
10449W        W52460   3.699  12.504   0.128
10450W        W52461  24.359   0.634  10.512
10451W        W52462  16.179  19.634   2.522
10452W        W52463   3.989  20.634   0.978
10453W        W52464   0.559  17.624   1.978
10454W        W52465   4.829  23.281   3.702
10455W        W52466  14.049   7.444  15.422
10456W        W52467  11.359   9.954   9.372
10457W        W52468  11.839   8.664  10.212
10458W        W52469  11.909  20.254   3.522
10459W        W52470  17.709   6.684   0.108
10460W        W52471  25.499   1.014  10.312
10461W        W52472  19.599   3.144   1.138
10462W        W52473  12.749  12.084   1.258
10463W        W52474   1.829   7.284   0.068
10464W        W52475   8.129   6.664   3.402
10465W        W52476  21.859  20.164   9.272
10466W        W52477  23.919  18.324   2.328
10467W        W52478  15.409  13.934  14.412
10468W        W52479  14.069  12.604   0.298
10469W        W52480  25.479  11.894   0.148
10470W        W52481   5.079  12.934   0.948
10471W        W52482  14.439  19.194   3.362
10472W        W52483  17.099   5.394   3.852
10473W        W52484   4.179  15.934  10.702
10474W        W52485  19.029  19.304   8.522
10475W        W52486  20.159  18.814   0.138
10476W        W52487   8.349  23.141   2.208
10477W        W52488  24.239  17.484  11.742
10478W        W52489  21.079  22.961  11.352
10479W        W52490  12.969  20.884   1.968
10480W        W52491   3.569  10.324   0.688
10481W        W52492   0.999  21.811   8.372
10482W        W52493   5.659   1.074  11.482
10483W        W52494  23.689  14.044   3.792
10484W        W52495  11.629  15.884   0.338
10485W        W52496  20.029  16.504   1.058
10486W        W52497   2.549  22.311  10.842
10487W        W52498  20.729   6.084   3.022
10488W        W52499  11.789  20.874   9.202
10489W        W52500   1.279   0.224  11.262
10490W        W52501   3.949   2.694   0.988
10491W        W52502  16.809   3.604  15.792
10492W        W52503  10.999  14.164   5.072
10493W        W52504   4.309  22.461   9.352
10494W        W52505  11.989   5.114   4.022
10495W        W52506  21.359   1.174   9.532
10496W        W52507  14.759   6.194   8.462
10497W        W52508  15.859  20.944   3.122
10498W        W52509   4.569   1.654   7.932
10499W        W52510   8.769  19.044   9.572
10500W        W52511   1.879   1.154   9.782
10501W        W52512  12.719   9.224   2.672
10502W        W52513  18.969  10.274   2.028
10503W        W52514   2.079  11.164   0.978
10504W        W52515  16.479  23.401  10.242
10505W        W52516  21.699  17.414   2.218
10506W        W52517  12.929   5.244   9.972
10507W        W52518   8.109   2.964   1.328
10508W        W52519  24.129  19.524  11.482
10509W        W52520   0.021  11.264   9.442
10510W        W52521   8.809  14.674  10.192
10511W        W52522   6.559   7.144   7.902
10512W        W52523   0.609  25.351   9.262
10513W        W52524   2.049   8.174   9.562
10514W        W52525  12.509  23.921   0.508
10515W        W52526  21.029  25.241   3.662
10516W        W52527  10.739   9.254   0.578
10517W        W52528   5.749   4.054  10.992
10518W        W52529   1.919  12.944   1.048
10519W        W52530  18.649   8.554   9.702
10520W        W52531  16.859  13.844  15.762
10521W        W52532   3.389  20.144   9.802
10522W        W52533  23.629  20.744  11.412
10523W        W52534  25.099  24.141   9.892
10524W        W52535   3.179  14.484  10.192
10525W        W52536   7.779   7.174  14.682
10526W        W52537  15.029   0.174   2.108
10527W        W52538  12.419  12.584  14.732
10528W        W52539   1.579  16.834  10.702
10529W        W52540   4.189   0.484   0.668
10530W        W52541  23.309   5.524   0.508
10531W        W52542   5.799   5.354   0.698
10532W        W52543  20.049   7.524  10.372
10533W        W52544  22.969  17.234   2.752
10534W        W52545   4.209   0.544   9.142
10535W        W52546  23.559  20.374   8.432
10536W        W52547  14.349   7.084   0.998
10537W        W52548   5.099  22.541  10.482
10538W        W52549  17.459  16.164   1.968
10539W        W52550   6.599  16.894   1.628
10540W        W52551  12.929  23.041   1.958
10541W        W52552   7.439   5.574   1.628
10542W        W52553   9.999  18.274   2.922
10543W        W52554  15.689   9.364   0.508
10544W        W52555   7.329  16.074   3.502
10545W        W52556   9.759  23.691  14.842
10546W        W52557  19.609  24.081   8.352
10547W        W52558  11.229   6.774  14.562
10548W        W52559  17.189  13.464   1.128
10549W        W52560   6.149  17.784   9.562
10550W        W52561   6.139  21.681  10.992
10551W        W52562  21.829   9.084   0.948
10552W        W52563   2.209   1.844   7.362
10553W        W52564   8.029   4.674   2.448
10554W        W52565   1.009  14.734   2.328
10555W        W52566  11.109   6.874  15.102
10556W        W52567   0.449  20.174   0.898
10557W        W52568   2.289  11.394   9.192
10558W        W52569  12.819   7.574   8.912
10559W        W52570   9.099  12.264   2.428
10560W        W52571  20.139  17.404   1.088
10561W        W52572  16.269  19.384   0.368
10562W        W52573   2.029   2.974   2.338
10563W        W52574   4.609   7.354   3.012
10564W        W52575   1.479  17.204   8.692
10565W        W52576  15.199  18.974   2.108
10566W        W52577   1.039  11.654   1.468
10567W        W52578   2.809   8.474   8.502
10568W        W52579  10.719   2.634   2.992
10569W        W52580  20.839  24.901   8.492
10570W        W52581  23.569  12.214   9.542
10571W        W52582   7.509  10.134  14.862
10572W        W52583  21.279   9.324   8.062
10573W        W52584  20.859   8.164   0.168
10574W        W52585   5.809  22.851  15.122
10575W        W52586  10.159  17.614   3.502
10576W        W52587   1.579  12.234   8.392
10577W        W52588  14.379  24.861   2.308
10578W        W52589   7.309   4.184   9.132
10579W        W52590  10.989  14.664   0.038
10580W        W52591  14.779  14.074  15.132
10581W        W52592  10.759  18.754   2.972
10582W        W52593   8.209  13.274  10.892
10583W        W52594  22.219   9.644   2.478
10584W        W52595  17.999  15.604   2.498
10585W        W52596  15.369  16.194   2.522
10586W        W52597   4.119  24.961   9.692
10587W        W52598  23.819  12.964   9.402
10588W        W52599  10.959  19.364  15.672
10589W        W52600  10.389  24.611   1.828
10590W        W52601   4.109   3.354   7.692
10591W        W52602  23.489   0.724   7.952
10592W        W52603   4.659  13.914  15.682
10593W        W52604  14.289   5.664   0.218
10594W        W52605  22.599   5.384   9.292
10595W        W52606  10.019  14.924   1.118
10596W        W52607  12.959  22.881   3.632
10597W        W52608  13.339   5.264   4.082
10598W        W52609  22.459  15.034  10.342
10599W        W52610  19.439  12.634   2.448
10600W        W52611  15.079   3.364  15.732
10601W        W52612   8.309  15.154   2.348
10602W        W52613  18.259   8.414   9.392
10603W        W52614   6.409  18.904   0.198
10604W        W52615  18.619  10.074   1.768
10605W        W52616  14.719   9.734  15.402
10606W        W52617   9.939   4.784   9.902
10607W        W52618   8.249  16.794   0.238
10608W        W52619   6.929  19.264  15.742
10609W        W52620   8.759   7.374   9.882
10610W        W52621  22.529  11.184   3.082
10611W        W52622  25.009  12.504   4.372
10612W        W52623   2.989  19.104  15.592
10613W        W52624   2.109  14.254   1.578
10614W        W52625  19.569   0.364   2.742
10615W        W52626  15.649   1.644   9.152
10616W        W52627   0.129   5.164   1.078
10617W        W52628  21.859  16.384   8.332
10618W        W52629  14.389   9.544   3.882
10619W        W52630   2.609   7.244   2.018
10620W        W52631   8.699  20.104   2.812
10621W        W52632  22.729   9.834   2.912
10622W        W52633  22.069   7.234   7.792
10623W        W52634   8.219   6.664   9.632
10624W        W52635  18.659   0.994  10.822
10625W        W52636   4.829  23.371   0.118
10626W        W52637  10.399  22.831   2.742
10627W        W52638   5.779   4.814  10.152
10628W        W52639  22.859   1.674   1.558
10629W        W52640  19.089  12.104  10.142
10630W        W52641  25.199  25.441   2.308
10631W        W52642   7.619  12.004   0.178
10632W        W52643  17.239   7.104   9.242
10633W        W52644  14.719  17.804   8.822
10634W        W52645  12.159  12.864   2.048
10635W        W52646  14.619   5.874  10.032
10636W        W52647   0.889  13.064   2.048
10637W        W52648   3.329  10.404   1.998
10638W        W52649  10.139   4.684   1.388
10639W        W52650  13.549  21.901   0.908
10640W        W52651  15.319   3.764   2.098
10641W        W52652   9.989  23.321   0.168
10642W        W52653  16.079  24.491  10.182
10643W        W52654  15.439  23.261   3.322
10644W        W52655   9.299  19.504   9.482
10645W        W52656  15.299   8.654   8.432
10646W        W52657  14.969  10.224   1.328
10647W        W52658  15.339   9.534   2.902
10648W        W52659  16.209  22.841   8.052
10649W        W52660  11.299  19.804  14.922
10650W        W52661   6.309  18.314   0.918
10651W        W52662  17.979   4.284   8.652
10652W        W52663  22.719   0.024   9.852
10653W        W52664  17.589   2.074  11.712
10654W        W52665  10.599  25.551  10.902
10655W        W52666  16.699  22.831   7.942
10656W        W52667  17.309  20.694   8.412
10657W        W52668  17.349  17.954   9.992
10658W        W52669   9.369  17.944   2.652
10659W        W52670   0.239  14.894  10.942
10660W        W52671   0.639  24.161   0.538
10661W        W52672  24.989   1.234  15.452
10662W        W52673  12.819  23.051  10.082
10663W        W52674  22.999   7.684   9.112
10664W        W52675  19.019  20.104   1.658
10665W        W52676  12.029  19.524  10.162
10666W        W52677  18.859  18.484   8.362
10667W        W52678   4.799  16.584   3.132
10668W        W52679  11.799  12.304   3.712
10669W        W52680   2.419  21.254  11.542
10670W        W52681   1.249  13.314   0.118
10671W        W52682  25.579  15.734   9.242
10672W        W52683  20.779   8.074   9.862
10673W        W52684   2.369   1.594   0.298
10674W        W52685   4.989  14.204  15.862
10675W        W52686  15.719  21.881  11.442
10676W        W52687  20.769   5.734   8.042
10677W        W52688   2.239  21.254   1.818
10678W        W52689  20.479   3.314   9.142
10679W        W52690   4.989   9.214   7.872
10680W        W52691  16.859   2.294  11.632
10681W        W52692  21.729  11.564  15.702
10682W        W52693   2.049   3.194   9.912
10683W        W52694  17.579   0.734   9.352
10684W        W52695  15.629  13.324   3.832
10685W        W52696   3.129   5.344   8.032
10686W        W52697   4.929   1.564  10.672
10687W        W52698  18.369  17.804   8.882
10688W        W52699  13.319  11.944   2.358
10689W        W52700  17.519  21.621  11.382
10690W        W52701   5.319   6.224   1.598
10691W        W52702  14.209   2.484   1.098
10692W        W52703  11.919   1.074  14.832
10693W        W52704   9.299   2.424  10.232
10694W        W52705  22.309  10.804   1.098
10695W        W52706  10.939  23.821   4.822
10696W        W52707  22.399  18.414  10.392
10697W        W52708  21.119  19.064   1.818
10698W        W52709   0.249  21.254   9.812
10699W        W52710  14.919   5.014   8.572
10700W        W52711   7.709   6.964   8.632
10701W        W52712  14.109  17.344   2.188
10702W        W52713  21.929  24.221   8.102
10703W        W52714  24.429  23.851   3.382
10704W        W52715  23.289   6.464   0.938
10705W        W52716  17.559  16.914   1.148
10706W        W52717  25.289   1.714   0.248
10707W        W52718   2.469  11.784   7.802
10708W        W52719  12.569   7.454  15.572
10709W        W52720  12.639  24.631   4.852
10710W        W52721  23.709   3.414   1.088
10711W        W52722   2.299   7.514   1.258
10712W        W52723  14.909  24.231   9.052
10713W        W52724   5.889  17.054   0.168
10714W        W52725  19.279  21.014   3.162
10715W        W52726  19.659  15.424   8.612
10716W        W52727   3.079   2.864   3.952
10717W        W52728  18.219   5.724   0.108
10718W        W52729  20.639   8.114   1.098
10719W        W52730   1.169  19.844   7.712
10720W        W52731  14.959  11.164   3.572
10721W        W52732  24.539   6.854   2.552
10722W        W52733  19.499  14.934   7.942
10723W        W52734   8.199   2.324   0.418
10724W        W52735  24.589   1.784  11.172
10725W        W52736  25.209   3.154  11.172
10726W        W52737  17.969  10.314   4.502
10727W        W52738   7.319  25.151   9.742
10728W        W52739   0.799  14.234   8.272
10729W        W52740  18.689  15.234  12.262
10730W        W52741  11.469   0.404   9.422
10731W        W52742   8.669   4.894   1.358
10732W        W52743  18.529   3.064   2.418
10733W        W52744   8.339  19.214   9.292
10734W        W52745  10.899  21.114   2.448
10735W        W52746  11.689  12.844   2.298
10736W        W52747  13.399  23.811   7.492
10737W        W52748   2.299  12.894  10.002
10738W        W52749  21.659  21.731  10.032
10739W        W52750  10.729  13.814   1.048
10740W        W52751   9.959  12.564  10.012
10741W        W52752  14.209  24.701   1.128
10742W        W52753  17.859   2.714   0.058
10743W        W52754  11.139   7.374  15.312
10744W        W52755  23.309  10.804  10.812
10745W        W52756  21.709  21.701   2.742
10746W        W52757  17.519  22.981  11.112
10747W        W52758  19.679   8.254  10.482
10748W        W52759  15.389  14.244  11.212
10749W        W52760  13.099  20.184   9.622
10750W        W52761  24.439   5.144   8.512
10751W        W52762   7.209   3.804   0.908
10752W        W52763   9.849  13.734   2.742
10753W        W52764  14.799  19.834   0.428
10754W        W52765  12.589  20.124  15.632
10755W        W52766  10.409   1.864   8.062
10756W        W52767   5.069   0.994   9.112
10757W        W52768  16.329   4.584   9.362
10758W        W52769  17.259  17.344   2.712
10759W        W52770   5.149   8.024   7.362
10760W        W52771  12.999  14.294   0.708
10761W        W52772   3.229   4.004   1.938
10762W        W52773  11.719  14.574   1.388
10763W        W52774   1.709  13.244  10.132
10764W        W52775  14.949  16.644   8.662
10765W        W52776  14.219  23.001  14.782
10766W        W52777   1.939   2.074  11.452
10767W        W52778  25.149  15.244   1.648
10768W        W52779  22.119  25.091   8.202
10769W        W52780  24.489  20.954  11.342
10770W        W52781  24.829  11.364   2.108
10771W        W52782  25.279   6.964   1.588
10772W        W52783   3.499  16.904   3.732
10773W        W52784  18.209   0.454  11.372
10774W        W52785   9.979   0.894  15.762
10775W        W52786  17.699  23.861  10.282
10776W        W52787   7.479  12.144   9.972
10777W        W52788   3.049  16.824   7.222
10778W        W52789   4.259  11.954   1.078
10779W        W52790  22.479  19.784   3.332
10780W        W52791  18.579  22.851   1.128
10781W        W52792   5.049  23.921   8.342
10782W        W52793   3.079  22.681   3.002
10783W        W52794  15.759  15.524  10.582
10784W        W52795  22.929  19.974   9.002
10785W        W52796   8.019   2.024   2.642
10786W        W52797   6.369  12.294   2.882
10787W        W52798   0.679  16.144   8.322
10788W        W52799  21.339  20.124   7.932
10789W        W52800  16.989  21.324   1.658
10790W        W52801   9.719  16.334  14.762
10791W        W52802  10.119  10.304   3.972
10792W        W52803   0.389   9.684   2.398
10793W        W52804  20.939  20.144   3.142
10794W        W52805   9.689   8.474  15.742
10795W        W52806  23.659   4.834  15.832
10796W        W52807  13.739  25.151   1.188
10797W        W52808   6.039   4.724   9.092
10798W        W52809  17.469  12.154   2.702
10799W        W52810  18.369  19.274  10.342
10800W        W52811  11.289   4.744  14.682
10801W        W52812   7.329  20.304   4.172
10802W        W52813  11.029   4.594   8.972
10803W        W52814  24.049  21.264   8.942
10804W        W52815  24.369   9.684   8.572
10805W        W52816  12.629  16.964   1.518
10806W        W52817  22.339   0.384   9.962
10807W        W52818   9.479   3.574   9.212
10808W        W52819  21.149  11.384  11.302
10809W        W52820  24.369  23.181   8.942
10810W        W52821  16.569   3.814   3.192
10811W        W52822  13.019   2.004   3.482
10812W        W52823  10.269   6.624   2.118
10813W        W52824  19.649   4.344   8.622
10814W        W52825   5.619  18.114   1.938
10815W        W52826  25.099  24.281  11.132
10816W        W52827   2.289   3.914   1.268
10817W        W52828  20.319  15.884   2.532
10818W        W52829  12.749  10.684   3.112
10819W        W52830  10.089  12.304   1.718
10820W        W52831  16.619  22.991  11.682
10821W        W52832   2.449   7.124   6.952
10822W        W52833   8.379  23.501   0.718
10823W        W52834  18.249  15.274   9.792
10824W        W52835  21.359  20.454   0.168
10825W        W52836   7.229   5.414   9.712
10826W        W52837  16.829   4.814   8.622
10827W        W52838  21.549   4.694  15.532
10828W        W52839  10.509  16.844   4.182
10829W        W52840  14.229  21.961  15.282
10830W        W52841   2.179  14.584   9.222
10831W        W52842   5.749  21.571   2.932
10832W        W52843   3.039  14.664   0.688
10833W        W52844  19.519   4.794  15.792
10834W        W52845  11.229   5.674   3.762
10835W        W52846  11.269  18.554   1.958
10836W        W52847  23.719   0.804   9.462
10837W        W52848  10.759   2.624   8.212
10838W        W52849   8.239   6.654   1.888
10839W        W52850  14.219   0.234   3.022
10840W        W52851   6.049  17.264   1.418
10841W        W52852  14.269  12.794   2.672
10842W        W52853   6.939  17.264   8.352
10843W        W52854  19.539   1.324   1.978
10844W        W52855  11.109   3.014   2.882
10845W        W52856  11.259  11.534   2.652
10846W        W52857  13.569  17.864   0.548
10847W        W52858   5.479  17.044   9.842
10848W        W52859  20.539   9.124   9.152
10849W        W52860  20.589  19.224  11.232
10850W        W52861  13.419  11.244  15.172
10851W        W52862  11.539  16.024   3.342
10852W        W52863   3.519  13.214  10.502
10853W        W52864  25.449   0.664  11.592
10854W        W52865   2.239  17.544   2.592
10855W        W52866  22.399   5.054   2.882
10856W        W52867   8.269   7.204   9.922
10857W        W52868  13.939  14.944   0.158
10858W        W52869   9.459  11.944   3.352
10859W        W52870   3.549  10.494   8.202
10860W        W52871  12.569  13.714  14.592
10861W        W52872  14.209   6.944   0.488
10862W        W52873   1.929   3.584   8.362
10863W        W52874   5.599   0.584  11.702
10864W        W52875   3.379   3.264   0.508
10865W        W52876   0.069   9.314   7.322
10866W        W52877  18.459   1.544   0.698
10867W        W52878  12.719   1.014   1.418
10868W        W52879   3.609  19.804   4.012
10869W        W52880  19.819  19.964   2.128
10870W        W52881  13.429  16.194  10.662
10871W        W52882  16.629  22.461  10.042
10872W        W52883  20.519  17.634   0.848
10873W        W52884   1.339  22.131   1.938
10874W        W52885  22.579   7.434   9.992
10875W        W52886   7.039  16.344  10.872
10876W        W52887   6.549   5.394  10.132
10877W        W52888   5.459   0.574   2.542
10878W        W52889  17.539  11.874   2.308
10879W        W52890   9.469  24.451   9.142
10880W        W52891   1.689  16.054   1.798
10881W        W52892  16.409   8.714  15.702
10882W        W52893   9.339  21.881   3.742
10883W        W52894  20.269  13.784  10.702
10884W        W52895  23.339  24.191   8.422
10885W        W52896  13.349   8.564   4.162
10886W        W52897   0.979   6.024   6.702
10887W        W52898  21.359  17.104  10.212
10888W        W52899  22.529  20.054   8.692
10889W        W52900  23.149  17.744   2.088
10890W        W52901  15.009  18.214   8.812
10891W        W52902   1.189  16.894  11.052
10892W        W52903  20.789  14.754  10.432
10893W        W52904  15.859  18.744  11.222
10894W        W52905   0.399   8.174   8.182
10895W        W52906  11.589   3.344   8.882
10896W        W52907   7.159  25.551   0.588
10897W        W52908  19.399  23.291   3.552
10898W        W52909  20.979   9.064   0.378
10899W        W52910  19.199   7.474   8.422
10900W        W52911  10.369  17.064   1.258
10901W        W52912   8.469  23.611  11.722
10902W        W52913   0.259  21.771   2.532
10903W        W52914  17.879   4.744   8.882
10904W        W52915  22.659   3.564   0.748
10905W        W52916   4.809  18.614  10.772
10906W        W52917   9.599   7.434  15.802
10907W        W52918   1.059  12.054  14.972
10908W        W52919  25.029   0.274   9.372
10909W        W52920  13.919  21.471   0.378
10910W        W52921   8.659  16.474   0.308
10911W        W52922   4.559   7.124   2.318
10912W        W52923  10.309  15.974   4.072
10913W        W52924  15.219  18.214   1.478
10914W        W52925  13.149   5.434  15.862
10915W        W52926   6.499   6.544  15.322
10916W        W52927   5.319   2.824   9.952
10917W        W52928  18.079  22.251   1.528
10918W        W52929   1.909   9.004   9.542
10919W        W52930  17.359   7.274   4.002
10920W        W52931   7.259  22.951   4.552
10921W        W52932   9.139   2.204   0.188
10922W        W52933   9.479  22.951   1.508
10923W        W52934  16.689   0.294   2.228
10924W        W52935  21.699  21.751   0.508
10925W        W52936   5.639   1.804   1.648
10926W        W52937   3.559  14.674   8.072
10927W        W52938   4.499  11.134   0.578
10928W        W52939  10.949   5.374  15.832
10929W        W52940  13.989   1.894   9.182
10930W        W52941  14.339   4.444  15.192
10931W        W52942  17.009  21.711  15.252
10932W        W52943   8.249  10.914   9.012
10933W        W52944  13.039   6.814  14.862
10934W        W52945  17.239  21.851   9.142
10935W        W52946  24.579  17.224   8.532
10936W        W52947   1.659  20.524   9.282
10937W        W52948   6.189   7.484   9.942
10938W        W52949  18.569   9.104   1.858
10939W        W52950   3.479   8.004   0.678
10940W        W52951   5.229  18.624   4.002
10941W        W52952  21.419  19.714   0.578
10942W        W52953  22.989   2.574   3.242
10943W        W52954  10.009   8.604  10.412
10944W        W52955  21.829  18.634   2.438
10945W        W52956   3.969  14.314  11.112
10946W        W52957  23.409   3.664   7.962
10947W        W52958  18.289   9.704   9.242
10948W        W52959  23.729   1.004  11.182
10949W        W52960   8.879  18.764  11.252
10950W        W52961   8.229   3.794  10.832
10951W        W52962  23.299   6.024   9.242
10952W        W52963   5.179  20.634  10.812
10953W        W52964  22.679  14.254   9.692
10954W        W52965   0.319  24.341   0.158
10955W        W52966  24.149  13.354   1.678
10956W        W52967  15.269  19.894   4.412
10957W        W52968   6.459  19.414   1.478
10958W        W52969   7.589  16.064   1.208
10959W        W52970  11.309   1.234   9.872
10960W        W52971   1.849   7.914   8.162
10961W        W52972  13.679  11.954   5.022
10962W        W52973  24.229  22.791  10.432
10963W        W52974  21.989  13.634   1.978
10964W        W52975   0.849  15.594   9.962
10965W        W52976   5.399   6.594   8.562
10966W        W52977   9.199  14.974   3.412
10967W        W52978   0.919   0.224   9.322
10968W        W52979  12.209   0.824   9.392
10969W        W52980  24.029  20.064   0.908
10970W        W52981   9.999  11.194   1.618
10971W        W52982   0.759   1.254  10.722
10972W        W52983  12.559  16.604  14.932
10973W        W52984  21.089  22.111  10.822
10974W        W52985  16.439  17.424   8.362
10975W        W52986  12.309  13.934  10.872
10976W        W52987   0.979   3.384   2.058
10977W        W52988   1.549  15.194  10.402
10978W        W52989  16.799  12.564  15.832
10979W        W52990   1.029  12.674   2.348
10980W        W52991  23.309   0.054   2.008
10981W        W52992  17.589   5.834   3.222
10982W        W52993  22.889  23.711  11.922
10983W        W52994   4.959  20.304   8.992
10984W        W52995   6.589  11.734  14.972
10985W        W52996  16.149  11.874   9.882
10986W        W52997   1.869   3.884   8.772
10987W        W52998   6.179  24.841  11.972
10988W        W52999  13.759   4.914   4.882
10989W        W53000  14.019  20.524   3.762
10990W        W53001  23.949  25.411   1.328
10991W        W53002   8.949   0.224   9.872
10992W        W53003  14.669   8.614   9.562
10993W        W53004   9.799  24.801   0.928
10994W        W53005  22.879   0.604   3.122
10995W        W53006  25.129   3.714   9.842
10996W        W53007   7.039  18.724   0.518
10997W        W53008  19.409  15.854   0.318
10998W        W53009  23.069  14.654  15.692
10999W        W53010   0.149  17.114  11.272
11000W        W53011   0.899   9.144   6.802
11001W        W53012   1.629  15.614  10.032
11002W        W53013  11.549   8.174   8.712
11003W        W53014   8.559  21.401  10.072
11004W        W53015  13.219  21.184  10.642
11005W        W53016   6.249   2.684   1.548
11006W        W53017   8.219   8.034   1.858
11007W        W53018  12.859   3.994   8.792
11008W        W53019   9.399   2.924   2.418
11009W        W53020  17.049   7.704   8.682
11010W        W53021  23.679   8.464   7.762
11011W        W53022  23.419  15.274   9.172
11012W        W53023  14.999  22.321   2.428
11013W        W53024  11.429  10.464   0.448
11014W        W53025  14.329  25.281   8.742
11015W        W53026   8.649  20.674   3.752
11016W        W53027  18.339  21.651   0.268
11017W        W53028  22.069   5.474   1.868
11018W        W53029  15.329   2.814   2.198
11019W        W53030  11.639  22.631   9.512
11020W        W53031  23.769   5.664  10.372
11021W        W53032   3.149  24.591   8.112
11022W        W53033   8.059  19.764   0.558
11023W        W53034  17.409  24.891   3.022
11024W        W53035  22.519  15.334  10.912
11025W        W53036  13.409  21.511   1.258
11026W        W53037  24.179   0.724   2.652
11027W        W53038   4.329   2.964  10.232
11028W        W53039  11.589  10.844   9.402
11029W        W53040  14.849  20.614  10.252
11030W        W53041  12.519  14.384   2.922
11031W        W53042  20.619   4.714   2.188
11032W        W53043  16.199   4.684   3.072
11033W        W53044   6.519   7.814  11.512
11034W        W53045  12.859   1.464   2.592
11035W        W53046   9.599  21.991   1.648
11036W        W53047   4.369  23.701   0.488
11037W        W53048  15.129  11.754   9.952
11038W        W53049   5.779   8.254   2.218
11039W        W53050   3.979  20.304   3.862
11040W        W53051   6.199  21.104   9.312
11041W        W53052   6.229  20.774  10.812
11042W        W53053  14.449  12.594  15.282
11043W        W53054  17.089  24.241   1.658
11044W        W53055  25.079  15.664   1.928
11045W        W53056  12.629  19.444   1.918
11046W        W53057  21.479  25.161   9.672
11047W        W53058  22.009  23.091   3.782
11048W        W53059   1.019   7.124   1.118
11049W        W53060  10.479   3.274  10.712
11050W        W53061  19.229  18.204   8.532
11051W        W53062   7.459  18.894  15.682
11052W        W53063  20.069  18.564   0.538
11053W        W53064  22.909   0.874  10.562
11054W        W53065  14.879   2.514   2.198
11055W        W53066  16.379  22.561  11.972
11056W        W53067  16.709   3.874   1.658
11057W        W53068   7.119   3.754  10.152
11058W        W53069  16.589   2.204   3.732
11059W        W53070  23.609  24.581   8.822
11060W        W53071   1.829  23.931   9.102
11061W        W53072   8.409   8.604  10.722
11062W        W53073   8.089   3.744   1.888
11063W        W53074   5.689   5.424   1.208
11064W        W53075   3.019  20.354   3.162
11065W        W53076   8.819  18.304   3.302
11066W        W53077  10.879  24.301   2.592
11067W        W53078   6.519  22.251   3.132
11068W        W53079   7.109  12.854   7.012
11069W        W53080   4.419  12.324  10.252
11070W        W53081  16.239  18.094   9.322
11071W        W53082  14.379  13.374  14.632
11072W        W53083   2.359  23.641   3.692
11073W        W53084   1.209  24.221   0.218
11074W        W53085  18.359   3.394   0.638
11075W        W53086   0.659  21.054  10.072
11076W        W53087  18.559  11.294   8.422
11077W        W53088  15.709   2.314   3.332
11078W        W53089  24.359   9.174   0.178
11079W        W53090  12.469  16.244   8.732
11080W        W53091  15.549  22.661   1.878
11081W        W53092  20.069   1.544   2.782
11082W        W53093  18.419   1.744   4.342
11083W        W53094   3.269   8.454   0.818
11084W        W53095   4.089  21.094   1.158
11085W        W53096   1.029  22.031   9.912
11086W        W53097  10.159  11.304   3.312
11087W        W53098  12.429   6.634   2.328
11088W        W53099  21.259  25.211   1.408
11089W        W53100   5.009  21.681  11.392
11090W        W53101   9.319  23.521  10.242
11091W        W53102  20.439  10.344   1.918
11092W        W53103   5.129  18.744   1.478
11093W        W53104  22.339   8.054  11.382
11094W        W53105  19.519  13.534   9.162
11095W        W53106  17.699  10.254   2.288
11096W        W53107   1.179  17.494   8.352
11097W        W53108  11.569   0.434   1.968
11098W        W53109  23.569   3.694   8.432
11099W        W53110  13.359  10.204   9.922
11100W        W53111   2.019  19.664   9.062
11101W        W53112   8.219   2.934   3.252
11102W        W53113   2.979  13.154   3.082
11103W        W53114   2.679   0.464   1.648
11104W        W53115   6.759   6.564  15.832
11105W        W53116   2.579  17.094  15.792
11106W        W53117   6.439  23.001   0.388
11107W        W53118  13.309   8.414   1.578
11108W        W53119  21.949   3.014  10.502
11109W        W53120  13.189   9.314   3.192
11110W        W53121  14.499  11.314   3.072
11111W        W53122  17.299  19.044  10.952
11112W        W53123  21.429  14.474  12.042
11113W        W53124  15.249  16.714  10.902
11114W        W53125  18.999  10.464  10.472
11115W        W53126   1.289  22.051   8.082
11116W        W53127   9.379   7.894   8.092
11117W        W53128   3.589  25.431  10.302
11118W        W53129  18.849  16.664   3.062
11119W        W53130  20.679  24.311  12.472
11120W        W53131   4.939  22.131   1.308
11121W        W53132   7.319  19.454   2.228
11122W        W53133  21.819  18.224   3.372
11123W        W53134   4.689  13.184  15.422
11124W        W53135  24.639  23.631  10.522
11125W        W53136   4.309  11.354   3.082
11126W        W53137  13.609  10.804   0.578
11127W        W53138  20.479  13.764   8.842
11128W        W53139  11.229   8.374   0.668
11129W        W53140   7.569  23.421   9.462
11130W        W53141   6.339  11.904   2.028
11131W        W53142  20.669  23.121   7.222
11132W        W53143  21.199   2.594   3.502
11133W        W53144  21.969   4.744   2.622
11134W        W53145   3.969  11.644   6.872
11135W        W53146  12.769  11.914   4.592
11136W        W53147   7.809   5.854   1.398
11137W        W53148   8.449   8.004  15.572
11138W        W53149  18.439  21.094  15.582
11139W        W53150   9.089   5.014   4.122
11140W        W53151  22.119  23.791   8.712
11141W        W53152   8.309  14.684  10.542
11142W        W53153  16.459  21.841   8.442
11143W        W53154  18.549  11.944  11.192
11144W        W53155  16.389  12.604   1.248
11145W        W53156  23.369  15.164  10.972
11146W        W53157  11.879  18.344   4.032
11147W        W53158  12.279  20.434   9.412
11148W        W53159  24.439   1.294   2.612
11149W        W53160  15.909  10.564   4.262
11150W        W53161   6.619   8.654   9.442
11151W        W53162   0.031  16.964   1.998
11152W        W53163   4.029  13.024   3.472
11153W        W53164  11.029  17.594  15.862
11154W        W53165  21.369  18.984   9.592
11155W        W53166  23.859  10.924   8.692
11156W        W53167   1.349   3.594  15.252
11157W        W53168   1.469  22.451   1.588
11158W        W53169  13.969  21.274   4.202
11159W        W53170   5.649   2.144   2.478
11160W        W53171  20.459  21.411   2.982
11161W        W53172   1.029   7.214   9.952
11162W        W53173  18.339  18.634  11.242
11163W        W53174  16.259   5.664   3.542
11164W        W53175  16.569   4.914   9.052
11165W        W53176   1.749  13.544  11.202
11166W        W53177   1.529  14.854   9.462
11167W        W53178  25.059  15.954   2.448
11168W        W53179  14.449  18.554   0.448
11169W        W53180   0.249   4.634  10.312
11170W        W53181   0.679  18.994   7.942
11171W        W53182   9.569   1.434   8.172
11172W        W53183   7.459   6.704   2.298
11173W        W53184  23.359  21.921   9.822
11174W        W53185  11.659  11.244  15.102
11175W        W53186  11.369  10.024   4.412
11176W        W53187   9.129   5.594  14.962
11177W        W53188   5.469  13.204  14.752
11178W        W53189  16.569  18.334   0.278
11179W        W53190  12.949   5.814   2.602
11180W        W53191  18.669  19.604  11.382
11181W        W53192  15.429  12.424   2.582
11182W        W53193  22.739   6.544  10.992
11183W        W53194  13.249  15.814   0.018
11184W        W53195  20.819  23.461  11.402
11185W        W53196   1.779  12.574  11.142
11186W        W53197  22.499  23.151   1.708
11187W        W53198   4.069  25.211   0.098
11188W        W53199  15.789   2.074  10.572
11189W        W53200   0.509   8.784   0.508
11190W        W53201  13.529   1.854   1.488
11191W        W53202   8.659  22.741   2.458
11192W        W53203   5.799  15.804  10.422
11193W        W53204  23.539  20.684   9.292
11194W        W53205  19.449  16.874   8.582
11195W        W53206   5.029   5.874   9.512
11196W        W53207   7.429  16.814  15.522
11197W        W53208   7.639  18.394   1.298
11198W        W53209  19.759   9.574   9.462
11199W        W53210   0.369  25.091  15.452
11200W        W53211   9.649  11.104   3.852
11201W        W53212   6.079  15.914   9.112
11202W        W53213   5.129  25.061   9.152
11203W        W53214   3.629  16.844   2.882
11204W        W53215  23.199  15.944   0.848
11205W        W53216   0.859  21.651   3.562
11206W        W53217  13.309  19.614   1.888
11207W        W53218  21.669   3.614   8.662
11208W        W53219   2.239  23.611  11.082
11209W        W53220   4.529   5.344   2.552
11210W        W53221   9.839  18.244   5.172
11211W        W53222   0.389  12.744   8.902
11212W        W53223  16.839  25.291   9.772
11213W        W53224  11.909   2.874  10.382
11214W        W53225  16.109   8.424   4.322
11215W        W53226  15.229  20.004   3.812
11216W        W53227   2.999  24.241   2.802
11217W        W53228  14.869   1.094  10.192
11218W        W53229  13.849   6.934   8.242
11219W        W53230  24.069   6.504   9.602
11220W        W53231  17.589  17.554  10.612
11221W        W53232   6.859  10.534   1.928
11222W        W53233  12.509   4.804   0.748
11223W        W53234  15.289  17.184   0.928
11224W        W53235  13.239   1.644   9.422
11225W        W53236   5.859  16.454   4.702
11226W        W53237  24.649   1.624  10.292
11227W        W53238  15.829   9.684   9.432
11228W        W53239   6.429  20.014   0.408
11229W        W53240  12.579   6.084   2.268
11230W        W53241   7.689   3.804   0.758
11231W        W53242   9.289  13.564   9.382
11232W        W53243   1.239   8.184  10.292
11233W        W53244   1.319  13.094  11.742
11234W        W53245  25.229  12.194  11.422
11235W        W53246  19.219   8.704   0.688
11236W        W53247  12.859  13.434   0.998
11237W        W53248   2.819  12.864   9.882
11238W        W53249  17.419  20.714  10.612
11239W        W53250  25.279  10.084  11.492
11240W        W53251   9.989  20.764   4.142
11241W        W53252   8.709   8.364   3.502
11242W        W53253  13.459   4.954   3.652
11243W        W53254   8.759   5.454   8.222
11244W        W53255  15.689  15.854   3.922
11245W        W53256   5.789   5.614   8.812
11246W        W53257   1.159  23.161   7.172
11247W        W53258  19.869  13.944   8.872
11248W        W53259  16.989   6.614   9.252
11249W        W53260   7.449   2.804   3.152
11250W        W53261  14.809   8.194   4.362
11251W        W53262  20.639  23.081   4.002
11252W        W53263  19.299  18.844   9.732
11253W        W53264   1.189  16.954   0.408
11254W        W53265  19.089   7.934   9.742
11255W        W53266   4.139   6.074   8.642
11256W        W53267   6.669  25.391   8.402
11257W        W53268  19.979  18.354   2.148
11258W        W53269  18.379   9.694   0.278
11259W        W53270   8.309  17.754   8.922
11260W        W53271  20.899   1.024   3.292
11261W        W53272   1.909   2.534   1.798
11262W        W53273  22.099   1.454  11.672
11263W        W53274  15.389  20.364   1.048
11264W        W53275   9.669  14.454  10.262
11265W        W53276   9.429  18.314  15.272
11266W        W53277  14.299  16.064   9.692
11267W        W53278   7.549  21.841   2.308
11268W        W53279   2.189   3.574   0.918
11269W        W53280   3.199   2.064   1.088
11270W        W53281   2.749  13.764   3.882
11271W        W53282  15.029   5.974   1.608
11272W        W53283   7.569  22.261   0.238
11273W        W53284  11.329  15.704   9.862
11274W        W53285  19.699  13.554   2.128
11275W        W53286  10.709   0.954   9.112
11276W        W53287   1.649  22.761  15.772
11277W        W53288   7.629   5.034   1.678
11278W        W53289   3.249  16.444   0.818
11279W        W53290   0.739  21.891   2.652
11280W        W53291  21.089   9.104   0.918
11281W        W53292   9.959  22.001   3.642
11282W        W53293  21.509   1.094   8.312
11283W        W53294  23.399  22.961  12.032
11284W        W53295   8.559  18.594   4.002
11285W        W53296  17.019   7.004  15.402
11286W        W53297  23.949  10.304   7.402
11287W        W53298  23.119  24.291   9.272
11288W        W53299  18.669  12.794   2.832
11289W        W53300   4.379   9.684  11.782
11290W        W53301  15.729  18.674   0.578
11291W        W53302  18.829   0.684  10.502
11292W        W53303  22.649  21.274   0.808
11293W        W53304  16.909  19.134   9.452
11294W        W53305   4.229  17.564  11.432
11295W        W53306   6.819  17.424   1.708
11296W        W53307   9.549  12.084   1.638
11297W        W53308   2.999  13.964   1.918
11298W        W53309  24.179  19.634   9.422
11299W        W53310  15.669  14.164   2.448
11300W        W53311   3.059   3.564   0.878
11301W        W53312  19.149  14.924   0.788
11302W        W53313   6.579   1.784   9.622
11303W        W53314  14.039   9.804   0.348
11304W        W53315  19.369  11.354  15.702
11305W        W53316  11.709   8.214   0.448
11306W        W53317  18.049  19.574   1.498
11307W        W53318  13.359   6.234  15.432
11308W        W53319  21.619   2.664   8.602
11309W        W53320   8.079  13.144   3.002
11310W        W53321   5.949  24.461   1.868
11311W        W53322  24.199  22.101   9.742
11312W        W53323   6.869   3.454   1.248
11313W        W53324   6.869  24.811   4.302
11314W        W53325  13.289   6.534   1.388
11315W        W53326   9.629   5.254   9.242
11316W        W53327   6.929  11.184  15.572
11317W        W53328   1.769  23.781   1.718
11318W        W53329   1.559  20.524   7.512
11319W        W53330   6.459  25.221  11.752
11320W        W53331   4.959   7.154   8.942
11321W        W53332   3.759  16.844   8.402
11322W        W53333  20.969  19.204  10.402
11323W        W53334  16.129  20.084   0.268
11324W        W53335  25.119  17.014  10.732
11325W        W53336  23.069  11.204   1.108
11326W        W53337  12.459  22.701   8.562
11327W        W53338   9.069  13.034   2.582
11328W        W53339  17.429  19.834   8.252
11329W        W53340   1.629   3.844   1.988
11330W        W53341  13.859  17.004   1.008
11331W        W53342  16.879  20.784  10.532
11332W        W53343  18.849  11.604   9.772
11333W        W53344   2.079  18.744   1.858
11334W        W53345  22.759  19.434  12.252
11335W        W53346  11.339  16.424   5.222
11336W        W53347  20.559   1.494   9.822
11337W        W53348   7.269  12.034   0.808
11338W        W53349   5.669  16.454   9.682
11339W        W53350  13.569  25.141  10.972
11340W        W53351   0.709   4.614   0.548
11341W        W53352  23.199  13.404   9.662
11342W        W53353   7.029  18.184   3.252
11343W        W53354  18.759   2.014   9.422
11344W        W53355  23.969  10.034  10.862
11345W        W53356   3.749  13.224   4.052
11346W        W53357  22.139  24.661   7.952
11347W        W53358   0.109  22.791   8.742
11348W        W53359  21.459   4.594   0.508
11349W        W53360   9.109   8.134   0.658
11350W        W53361  14.949   6.384  15.782
11351W        W53362  18.999   8.614  11.022
11352W        W53363  25.019  21.244  10.592
11353W        W53364  18.189   2.254   3.602
11354W        W53365  13.589   3.434   3.252
11355W        W53366  12.569  19.504   8.632
11356W        W53367   4.379   8.714   8.832
11357W        W53368   0.309  24.791   8.342
11358W        W53369  24.739  13.934   9.642
11359W        W53370  23.159  11.874  10.612
11360W        W53371  11.849   3.344   8.442
11361W        W53372  16.989  18.304  10.012
11362W        W53373   5.479   8.344  10.592
11363W        W53374  17.029  25.251  10.472
11364W        W53375   8.979  13.764   3.822
11365W        W53376   8.429   6.384   0.228
11366W        W53377   0.829   1.084   8.282
11367W        W53378  16.419  10.414  10.172
11368W        W53379   4.009   4.324   1.358
11369W        W53380  22.579   1.094  10.142
11370W        W53381  15.119  13.614   0.388
11371W        W53382  10.249  10.774   4.122
11372W        W53383   2.579  14.624   1.728
11373W        W53384  22.629  20.354   8.292
11374W        W53385   8.809  16.114  10.372
11375W        W53386  19.679   3.954   7.792
11376W        W53387  22.289  24.281   1.218
11377W        W53388  23.859  15.934  11.102
11378W        W53389   9.369   9.794  10.892
11379W        W53390   4.019  22.911   3.432
11380W        W53391  14.039   9.464   4.332
11381W        W53392  23.539  15.874   9.722
11382W        W53393  16.959   6.294   4.232
11383W        W53394   6.139  15.864   1.958
11384W        W53395   9.189   6.534   2.812
11385W        W53396  19.189   0.114   8.032
11386W        W53397   5.639  15.144   7.232
11387W        W53398  14.069   5.244   9.492
11388W        W53399   2.909   9.664  15.212
11389W        W53400   1.069   3.954   2.208
11390W        W53401   3.739  13.094   9.512
11391W        W53402  22.349  13.854   0.408
11392W        W53403  19.709  18.144   7.262
11393W        W53404  22.699   5.424   3.652
11394W        W53405   7.619   2.614   9.532
11395W        W53406  10.599  13.644  14.822
11396W        W53407  24.529  25.471   8.202
11397W        W53408  24.149   2.194   1.838
11398W        W53409   1.189   1.874   0.058
11399W        W53410  20.849   2.844   9.712
11400W        W53411  21.979  23.701  10.122
11401W        W53412  20.409   1.084   2.058
11402W        W53413  11.749  18.314  15.442
11403W        W53414  19.599   3.574  10.662
11404W        W53415  16.629  14.054   1.848
11405W        W53416   0.199   6.004   9.822
11406W        W53417  18.039   4.994   3.772
11407W        W53418   1.499   1.414  11.832
11408W        W53419  11.119  14.774   2.852
11409W        W53420  22.499   3.414  11.562
11410W        W53421   3.949  23.331   0.368
11411W        W53422   2.619  10.664   0.598
11412W        W53423  17.569  13.934   2.752
11413W        W53424  10.679  17.914   1.678
11414W        W53425   4.269   3.694   9.382
11415W        W53426   1.309  18.434   3.292
11416W        W53427  10.809  15.124   0.308
11417W        W53428  15.189  10.384  10.032
11418W        W53429  14.499  16.984  11.252
11419W        W53430  23.129   2.704  10.382
11420W        W53431  24.519  20.114   7.702
11421W        W53432   5.789  14.704   1.488
11422W        W53433  24.359  15.574   1.038
11423W        W53434   6.449  13.104   6.952
11424W        W53435   3.699  16.854  11.182
11425W        W53436  16.239  20.514  10.102
11426W        W53437  14.169  21.304  11.062
11427W        W53438   8.919  18.194   2.842
11428W        W53439   2.789   2.024   1.728
11429W        W53440  20.269   9.574  10.132
11430W        W53441  23.989  17.824  10.612
11431W        W53442   5.199  19.814  15.242
11432W        W53443  24.849   5.554   2.078
11433W        W53444   3.979  12.664   9.452
11434W        W53445   2.319   4.334   3.502
11435W        W53446   6.719   5.264   0.188
11436W        W53447   5.389  18.594   1.998
11437W        W53448  15.939   2.354   1.828
11438W        W53449  18.529  20.584  11.202
11439W        W53450  18.009  11.344   2.752
11440W        W53451  10.069  10.524   1.528
11441W        W53452   3.679  21.254   2.722
11442W        W53453  22.129   0.584   7.872
11443W        W53454  17.299  18.284   3.562
11444W        W53455  12.089  13.654   4.542
11445W        W53456   4.949  11.214   9.052
11446W        W53457  17.749  15.094   3.972
11447W        W53458  17.469  24.881   2.298
11448W        W53459   0.139   0.244   9.952
11449W        W53460   0.599  16.964  15.602
11450W        W53461  13.229  14.384   1.218
11451W        W53462  23.899  24.441   2.572
11452W        W53463  17.369   0.834  11.722
11453W        W53464   1.119  18.164   7.592
11454W        W53465  23.279   5.004  10.022
11455W        W53466  12.249  14.564  14.022
11456W        W53467  19.529  11.774   0.098
11457W        W53468  20.289   3.034   0.468
11458W        W53469   8.039  22.631   9.292
11459W        W53470   2.939  23.011   9.742
11460W        W53471   3.989  10.314   8.912
11461W        W53472   5.459  19.474   8.752
11462W        W53473   1.279  15.734   9.722
11463W        W53474  21.869  20.854   1.388
11464W        W53475   1.559  22.081  15.122
11465W        W53476  16.399  20.544   3.782
11466W        W53477  17.159  24.621   2.612
11467W        W53478   7.009  19.834   9.792
11468W        W53479  18.499   0.814   1.068
11469W        W53480  12.659   8.644   8.162
11470W        W53481  15.189  15.434   9.762
11471W        W53482   8.859  21.024   2.358
11472W        W53483  21.929   6.744  10.882
11473W        W53484   8.159  22.971   0.228
11474W        W53485   4.569  12.284   2.178
11475W        W53486  22.859  20.814  10.722
11476W        W53487  18.549   2.074   8.172
11477W        W53488   9.349  25.571   8.232
11478W        W53489   3.479  16.644   7.972
11479W        W53490   7.719   9.974   0.088
11480W        W53491   9.309  10.734  11.312
11481W        W53492  17.819   5.514  10.322
11482W        W53493   9.479  24.381   8.402
11483W        W53494   9.189  13.184   0.358
11484W        W53495  24.089   1.914   1.438
11485W        W53496   2.699   8.314   0.978
11486W        W53497  14.489  20.274   4.602
11487W        W53498  15.069  10.494  10.722
11488W        W53499  25.589   6.934  10.412
11489W        W53500   3.849  16.794  10.312
11490W        W53501   1.119   7.584   3.282
11491W        W53502  10.239  19.794  10.172
11492W        W53503   2.239  22.761   0.138
11493W        W53504  12.649   0.994   8.052
11494W        W53505  22.709   3.574   2.892
11495W        W53506  19.999   2.374   9.582
11496W        W53507   4.999  15.594   8.542
11497W        W53508   0.759  25.141  11.302
11498W        W53509  11.309  23.541   0.768
11499W        W53510  21.629  25.151   9.102
11500W        W53511  13.579   9.014  15.632
11501W        W53512  16.849  22.561   1.418
11502W        W53513  11.009   0.824   8.672
11503W        W53514   0.619  21.751   7.392
11504W        W53515  14.019  20.014   0.818
11505W        W53516   0.499  15.514   9.142
11506W        W53517  23.649   4.074  11.082
11507W        W53518   9.659  23.601   9.382
11508W        W53519  16.319  10.014   0.068
11509W        W53520  24.089  24.781   1.258
11510W        W53521  19.409   9.364   1.408
11511W        W53522   9.019   1.644   8.832
11512W        W53523  25.089  21.421   9.022
11513W        W53524  17.169  21.054   7.482
11514W        W53525  21.209  22.481   9.742
11515W        W53526  25.509  22.851   1.528
11516W        W53527   9.099   0.324   0.518
11517W        W53528  17.049  23.641   0.688
11518W        W53529   4.669  15.224   3.642
11519W        W53530  12.559   9.104  10.232
11520W        W53531   1.299  13.724  10.972
11521W        W53532   9.229  10.524   8.122
11522W        W53533  15.799  19.494   8.562
11523W        W53534  17.299   5.194   1.288
11524W        W53535  22.019  15.014   0.878
11525W        W53536   0.679   1.494   1.908
11526W        W53537  22.959  12.164   0.908
11527W        W53538  19.959  10.434   0.208
11528W        W53539   1.239  23.491   7.772
11529W        W53540  15.989  16.274  15.012
11530W        W53541  13.489  24.531   2.408
11531W        W53542  19.099  20.314  10.042
11532W        W53543  24.209   1.454  11.162
11533W        W53544   6.379   5.744   4.152
11534W        W53545  19.439   5.194  10.882
11535W        W53546   4.019  19.124   0.298
11536W        W53547   7.109  14.444   7.912
11537W        W53548  10.029  12.834   1.758
11538W        W53549  16.829  18.374   8.342
11539W        W53550  20.019   7.034  11.272
11540W        W53551   5.939  12.794  10.062
11541W        W53552  15.639   8.034   0.508
11542W        W53553   6.099  19.484   2.892
11543W        W53554   8.949   6.974   2.612
11544W        W53555   8.729  20.604   2.078
11545W        W53556  17.169  15.684   3.822
11546W        W53557  20.339  13.604   0.988
11547W        W53558   6.479  14.174  15.582
11548W        W53559   4.759  23.251   9.882
11549W        W53560  25.329  11.684   8.622
11550W        W53561   3.289   7.324  10.872
11551W        W53562  25.029  12.594   2.338
11552W        W53563  16.319  10.984  10.142
11553W        W53564   5.839   7.374   2.188
11554W        W53565  24.609  21.054   7.782
11555W        W53566  13.849  24.361  15.712
11556W        W53567  18.439   0.134   1.558
11557W        W53568   2.009   7.364   9.582
11558W        W53569  19.719  21.511  11.112
11559W        W53570  20.689  11.164   2.298
11560W        W53571   4.869  17.534   3.292
11561W        W53572  21.309  22.811   3.292
11562W        W53573   8.689  19.264   1.698
11563W        W53574  14.649  16.544  10.912
11564W        W53575  21.279   3.424  11.272
11565W        W53576  22.539  19.494   2.512
11566W        W53577  10.369  16.204   9.102
11567W        W53578   5.089   5.934  10.222
11568W        W53579  22.049   0.134   8.532
11569W        W53580   3.109   4.694   0.328
11570W        W53581  19.549  22.971   2.702
11571W        W53582  13.459  11.624   1.778
11572W        W53583   5.609   9.084  10.312
11573W        W53584   2.219  24.861  11.842
11574W        W53585  17.699   7.014   2.542
11575W        W53586  11.229  14.424   0.518
11576W        W53587  17.729   7.954   3.572
11577W        W53588   5.349  14.554   3.082
11578W        W53589  16.229  13.094   0.528
11579W        W53590  11.779   8.934   2.338
11580W        W53591  11.799  19.954  10.192
11581W        W53592  18.519  21.461  10.562
11582W        W53593   5.979  23.391   1.358
11583W        W53594   2.509  25.561   8.992
11584W        W53595   6.769   0.224   2.952
11585W        W53596   4.719  13.554   1.628
11586W        W53597  18.329   6.564   9.202
11587W        W53598  10.319   8.444   1.138
11588W        W53599   5.699  20.064   2.028
11589W        W53600  21.379  23.211   8.822
11590W        W53601  24.149   9.374   2.378
11591W        W53602  12.489  24.861   0.898
11592W        W53603  16.639  14.134   1.088
11593W        W53604  18.799  10.934  15.062
11594W        W53605  20.149  25.571   1.198
11595W        W53606   6.649  12.184   1.498
11596W        W53607  13.969  10.624  14.202
11597W        W53608  11.469   7.394   0.808
11598W        W53609  22.229  13.204   1.118
11599W        W53610  25.559  20.134   1.708
11600W        W53611  14.209   2.764   3.392
11601W        W53612  23.679   5.264   0.308
11602W        W53613   9.339   9.254   1.458
11603W        W53614   7.859  18.014  10.452
11604W        W53615  25.109  17.364   9.992
11605W        W53616   8.849  17.344   9.442
11606W        W53617  20.399  16.534   1.538
11607W        W53618  11.329  10.194   2.128
11608W        W53619   5.989  21.581   3.792
11609W        W53620   7.739  10.834   0.808
11610W        W53621  11.249  25.011   0.898
11611W        W53622  15.479   3.154   0.048
11612W        W53623   9.979  23.911   2.612
11613W        W53624   2.239   0.964   9.362
11614W        W53625   9.249   5.944   1.258
11615W        W53626   9.089  13.534  10.652
11616W        W53627  18.759   5.674   2.228
11617W        W53628  17.029  17.374   1.108
11618W        W53629  14.059   3.284   0.508
11619W        W53630   1.399  18.424  10.952
11620W        W53631  10.149  20.514  10.162
11621W        W53632  20.479   0.764   8.222
11622W        W53633  14.149   5.724  15.162
11623W        W53634  11.029   0.314   2.752
11624W        W53635   9.799  10.794  14.952
11625W        W53636  20.559   6.834  11.242
11626W        W53637  14.649   6.414   9.912
11627W        W53638   1.139   5.934   8.322
11628W        W53639   4.259   9.484   2.572
11629W        W53640   6.699  10.784  15.822
11630W        W53641   1.789   5.474   1.208
11631W        W53642  21.529   2.094  11.632
11632W        W53643  13.649   2.814   0.338
11633W        W53644   8.919   8.494   2.278
11634W        W53645  21.279  24.951   8.852
11635W        W53646  19.989  12.264   1.818
11636W        W53647   6.049   4.944   2.712
11637W        W53648   6.819  12.124   2.028
11638W        W53649  13.099  22.381   1.408
11639W        W53650  14.879   4.504  15.332
11640W        W53651  24.879   7.974   8.012
11641W        W53652   6.949  12.264   8.992
11642W        W53653  15.509  18.824   7.832
11643W        W53654  10.269   1.104   7.302
11644W        W53655  16.999  18.614   2.418
11645W        W53656  25.209  17.294  11.262
11646W        W53657  22.789   2.124   9.922
11647W        W53658  14.189  22.451   1.858
11648W        W53659  11.119   9.134   2.672
11649W        W53660  14.679   2.614   8.452
11650W        W53661   5.819   1.054   8.212
11651W        W53662   6.809  15.744   1.478
11652W        W53663  14.119  22.761  15.732
11653W        W53664  20.189  18.384   0.998
11654W        W53665  19.049  17.654  10.702
11655W        W53666  16.199   5.524   0.038
11656W        W53667  16.109  21.691   0.758
11657W        W53668   4.049   0.064  10.592
11658W        W53669  13.359   7.634   2.448
11659W        W53670   3.599  19.174  11.442
11660W        W53671  24.759  22.181   1.898
11661W        W53672   7.309  21.134  14.782
11662W        W53673   6.869  18.434  14.672
11663W        W53674  20.419  21.344  10.592
11664W        W53675   6.619  19.554   2.792
11665W        W53676  15.889  18.264   8.672
11666W        W53677  23.529   3.764   7.022
11667W        W53678   7.909   0.954   8.062
11668W        W53679  14.539  22.941   9.142
11669W        W53680  22.569  16.654   0.388
11670W        W53681  24.209   7.924   7.502
11671W        W53682   5.799  10.694   9.862
11672W        W53683  17.789  25.011  11.512
11673W        W53684   0.529   0.684   7.812
11674W        W53685  15.619  21.104   8.682
11675W        W53686  16.029  19.854   0.718
11676W        W53687   6.509  20.624  10.432
11677W        W53688  11.029  24.221   2.078
11678W        W53689  12.569  12.184  15.022
11679W        W53690   3.159  19.044   2.148
11680W        W53691  13.849  11.854   3.582
11681W        W53692  12.279   1.264   9.882
11682W        W53693   5.079   6.094   0.558
11683W        W53694   8.669  24.831  15.832
11684W        W53695  14.969   2.454   0.358
11685W        W53696   5.139  18.974   4.412
11686W        W53697  23.219  18.994   8.522
11687W        W53698   4.759  19.914   2.158
11688W        W53699   8.439  19.074   0.018
11689W        W53700   4.629  15.304  11.682
11690W        W53701  20.869  10.284   2.068
11691W        W53702  22.049   6.234   9.282
11692W        W53703   8.309  22.861   1.308
11693W        W53704  10.599   3.564   0.578
11694W        W53705   4.649  10.444   9.752
11695W        W53706   8.919  14.824   0.978
11696W        W53707   7.509  21.581   9.532
11697W        W53708  10.379   3.314   1.428
11698W        W53709   6.459  15.234   8.502
11699W        W53710   7.769  13.904   1.818
11700W        W53711  20.049  20.794   8.582
11701W        W53712   9.149   9.664   9.752
11702W        W53713  23.289  12.284   7.442
11703W        W53714  12.039  16.554   0.218
11704W        W53715  16.209   0.054  11.612
11705W        W53716   0.069  18.864   2.732
11706W        W53717  18.379  11.634   3.942
11707W        W53718   2.459  10.284   9.232
11708W        W53719  17.149   5.884   3.692
11709W        W53720   3.269   7.054   0.758
11710W        W53721  13.609  10.234   1.498
11711W        W53722  23.869   8.834   2.632
11712W        W53723  15.929   7.214  15.872
11713W        W53724   5.039   9.114   0.458
11714W        W53725  14.379  22.211   8.982
11715W        W53726  20.529  18.744   9.632
11716W        W53727  13.309   1.984   0.158
11717W        W53728  21.259  12.554  10.592
11718W        W53729   1.329  19.384   3.702
11719W        W53730   0.999  14.164   0.298
11720W        W53731   4.979  13.294  14.862
11721W        W53732  14.639  24.311  11.342
11722W        W53733   0.069  12.094   0.618
11723W        W53734  11.499  22.991   3.792
11724W        W53735  24.429   5.914   8.362
11725W        W53736  12.639   4.584   0.258
11726W        W53737   5.109   5.664   8.202
11727W        W53738  15.609  24.371   0.488
11728W        W53739  23.339  15.754   2.158
11729W        W53740  17.479   9.264   8.612
11730W        W53741   5.739  17.764  15.642
11731W        W53742   6.339  20.194  10.742
11732W        W53743  10.519  15.614  15.412
11733W        W53744  25.059  22.581  12.412
11734W        W53745  22.729  10.344   2.582
11735W        W53746   4.689  15.884   3.782
11736W        W53747  10.059  16.574   3.392
11737W        W53748  22.659  21.194   1.798
11738W        W53749  21.069   3.144   2.652
11739W        W53750   5.949   0.544  10.712
11740W        W53751  11.749   6.784  10.102
11741W        W53752   9.979   1.534   1.628
11742W        W53753  13.759   0.404  11.002
11743W        W53754  12.939   5.674  10.892
11744W        W53755  17.089  23.271   8.032
11745W        W53756  15.049   0.464  11.892
11746W        W53757  22.729   1.614   7.672
11747W        W53758  17.689   8.494  10.192
11748W        W53759  16.959   0.234   1.248
11749W        W53760   5.599  20.204   1.548
11750W        W53761  25.429   6.274   8.532
11751W        W53762  11.059  20.884   8.732
11752W        W53763  14.009  12.444   5.162
11753W        W53764  21.309   0.254  11.912
11754W        W53765   1.789   1.564   8.462
11755W        W53766   4.569  14.854   2.642
11756W        W53767  16.289  10.154   1.298
11757W        W53768   1.849  24.451   3.302
11758W        W53769   5.379  11.584   2.398
11759W        W53770  21.719  24.651   9.802
11760W        W53771   9.889  12.774  14.912
11761W        W53772   5.139   1.304   2.972
11762W        W53773   8.469   0.784   2.388
11763W        W53774  20.709  16.534  11.502
11764W        W53775   7.069  22.661   8.612
11765W        W53776  11.499   3.214   4.272
11766W        W53777  20.949  21.304   2.188
11767W        W53778   1.769  21.164  10.742
11768W        W53779  24.249  10.594   3.132
11769W        W53780  23.889  11.394   9.742
11770W        W53781  22.409  12.904   9.482
11771W        W53782  25.469  13.484   8.692
11772W        W53783  17.359  18.494   2.792
11773W        W53784  24.759  11.304  11.362
11774W        W53785  20.909  16.404   2.872
11775W        W53786   0.749   7.184   1.518
11776W        W53787   6.479  13.304   0.068
11777W        W53788  24.499   5.214   0.338
11778W        W53789   8.159   1.184  15.562
11779W        W53790   7.319  23.261   7.622
11780W        W53791  10.229  10.174  15.722
11781W        W53792  22.939   1.484   8.252
11782W        W53793  22.979   6.254   3.182
11783W        W53794  16.689   0.754   1.148
11784W        W53795   0.869  18.824   8.752
11785W        W53796  19.769  10.154   7.912
11786W        W53797  23.859   3.844   0.658
11787W        W53798   0.899   8.964   8.642
11788W        W53799   8.169   1.304   3.692
11789W        W53800   5.769   9.964  10.522
11790W        W53801  17.249  11.204   0.188
11791W        W53802   5.999  13.034   1.358
11792W        W53803   1.699  17.174   8.022
11793W        W53804  16.959   5.684   0.628
11794W        W53805  24.439   2.404   1.138
11795W        W53806  14.879   5.044   0.718
11796W        W53807  10.959  21.901   3.072
11797W        W53808   2.329  21.154   0.858
11798W        W53809  11.219  23.431   4.852
11799W        W53810  19.649  21.781   2.842
11800W        W53811   3.409  12.634  15.392
11801W        W53812  18.709   4.884   2.962
11802W        W53813   9.629  15.014   9.222
11803W        W53814  11.399   3.704   2.088
11804W        W53815  14.139   9.014   2.962
11805W        W53816   6.369  18.584   1.748
11806W        W53817   6.479  10.294  14.472
11807W        W53818   0.041  13.984   9.702
11808W        W53819   1.769  23.331   3.322
11809W        W53820   3.729   7.284   6.982
11810W        W53821  15.219  23.011   3.762
11811W        W53822   5.119   6.684   8.122
11812W        W53823   0.739  17.524   0.958
11813W        W53824  21.749   3.474  10.542
11814W        W53825   2.719  13.834   0.158
11815W        W53826   3.479  16.424   7.112
11816W        W53827   1.039  20.754   1.948
11817W        W53828  18.669  18.994   8.542
11818W        W53829  23.759   0.234  10.742
11819W        W53830   8.699  20.814   8.502
11820W        W53831   5.559   7.904  10.382
11821W        W53832   1.299  19.504   7.142
11822W        W53833  13.889  11.444   9.132
11823W        W53834   6.829  25.561  15.112
11824W        W53835   5.309   9.504   0.358
11825W        W53836   9.229   5.864   2.892
11826W        W53837  13.109  23.801   9.852
11827W        W53838   2.369   8.574   6.892
11828W        W53839   1.469  12.234   9.802
11829W        W53840  10.009   2.104   3.362
11830W        W53841  18.399  23.001   2.632
11831W        W53842  15.499   4.604   7.872
11832W        W53843   3.619   0.214  10.722
11833W        W53844  16.999   6.304  10.072
11834W        W53845  24.929  21.284   0.548
11835W        W53846   9.939  17.834   2.188
11836W        W53847   4.229  15.014   8.552
11837W        W53848  18.209  21.991   3.382
11838W        W53849  16.639  10.714   3.332
11839W        W53850  19.939  10.144   2.612
11840W        W53851  21.429   7.834   7.252
11841W        W53852  17.749   4.604   1.988
11842W        W53853   4.179  23.061   9.962
11843W        W53854   7.329   3.154   0.348
11844W        W53855  14.899  20.774   0.538
11845W        W53856  20.519   6.124   8.842
11846W        W53857   5.969  16.344   3.602
11847W        W53858  14.939  21.901   8.052
11848W        W53859   6.489  21.831   3.712
11849W        W53860   7.309   4.304  10.132
11850W        W53861  11.499  23.881  10.772
11851W        W53862  24.149   2.344   2.782
11852W        W53863  17.819  15.234  10.742
11853W        W53864  23.519  12.474   0.668
11854W        W53865   0.909   5.184   9.622
11855W        W53866  20.359  11.264  10.092
11856W        W53867  19.109  17.194  10.852
11857W        W53868  16.459  13.794  14.352
11858W        W53869  20.229  15.204   3.062
11859W        W53870   8.519   2.024  15.232
11860W        W53871   2.099  17.954   2.338
11861W        W53872   8.899  13.574   9.752
11862W        W53873   1.119  13.364   8.902
11863W        W53874   3.269  13.814   0.158
11864W        W53875   3.649   8.834   7.362
11865W        W53876   7.599   7.514   0.288
11866W        W53877   8.729   7.764   2.612
11867W        W53878   2.659  11.964  10.382
11868W        W53879  10.989  18.764  10.342
11869W        W53880  18.519  22.041   2.962
11870W        W53881  18.959  15.124   1.348
11871W        W53882   4.089   4.124   9.192
11872W        W53883   7.909  20.874   8.662
11873W        W53884   1.259  20.044  10.002
11874W        W53885   1.679   5.464   7.032
11875W        W53886   6.819  21.601  10.302
11876W        W53887  17.329  20.244  10.672
11877W        W53888   5.139  16.614   2.522
11878W        W53889   9.189  13.774   3.282
11879W        W53890  10.829   9.344   3.072
11880W        W53891  18.339   4.674   8.542
11881W        W53892  14.739  10.244  10.422
11882W        W53893  11.439   6.984   9.352
11883W        W53894   6.849  11.214   8.742
11884W        W53895   1.009  19.324   2.198
11885W        W53896  11.239   7.504   8.252
11886W        W53897  22.159  14.164   3.262
11887W        W53898   6.099  17.644   8.312
11888W        W53899   8.239  23.731  15.052
11889W        W53900   9.559   2.444   0.358
11890W        W53901   2.679   9.364   7.462
11891W        W53902  22.569   3.004   9.502
11892W        W53903  18.219  13.554  10.382
11893W        W53904   9.689  23.991   4.262
11894W        W53905  11.119  22.771   4.072
11895W        W53906  17.109   6.814   1.238
11896W        W53907  12.279  10.304   1.798
11897W        W53908   4.979  10.134   0.798
11898W        W53909   4.469  17.374   0.258
11899W        W53910   3.349   2.784   2.862
11900W        W53911  13.999  11.014   9.332
11901W        W53912  21.749   4.554   1.768
11902W        W53913  17.189  21.114   0.798
11903W        W53914   8.039   3.594   9.392
11904W        W53915  16.209  12.994   3.152
11905W        W53916  12.599  18.734   1.128
11906W        W53917   4.979  15.774   4.342
11907W        W53918  16.409  25.021   1.848
11908W        W53919  22.379  14.434   1.498
11909W        W53920   5.549   4.174   9.672
11910W        W53921   7.479   2.404  10.492
11911W        W53922   8.069   6.684   2.418
11912W        W53923  10.979   5.744   0.298
11913W        W53924  15.649  13.094   4.412
11914W        W53925  13.299  10.674   9.572
11915W        W53926  12.639  15.454   1.528
11916W        W53927  10.589  23.391   9.342
11917W        W53928  10.599  10.094   0.738
11918W        W53929  23.589  13.944  11.512
11919W        W53930  21.719  14.404  15.452
11920W        W53931   7.819  24.641   2.258
11921W        W53932  24.299  23.891   1.468
11922W        W53933  14.659  18.714   4.152
11923W        W53934   5.199  22.071   9.582
11924W        W53935   2.709  24.941   3.552
11925W        W53936  21.689  21.851  11.432
11926W        W53937   0.919   8.764   0.778
11927W        W53938   8.559  21.204   4.102
11928W        W53939   6.719  15.834   9.952
11929W        W53940   5.109  17.964   2.722
11930W        W53941  14.919  19.564   9.932
11931W        W53942  16.679  13.734   3.602
11932W        W53943   2.059  11.744  15.352
11933W        W53944  21.819  23.691   9.652
11934W        W53945  22.849   8.944   2.338
11935W        W53946  16.499   1.934   0.568
11936W        W53947  10.519   6.734   0.518
11937W        W53948  21.099  24.441   3.142
11938W        W53949   1.189  20.364   9.032
11939W        W53950  21.299  11.754   3.862
11940W        W53951  12.739  21.214   9.232
11941W        W53952   2.439  16.284   2.872
11942W        W53953  20.189  13.954   2.792
11943W        W53954   5.729  12.554   8.062
11944W        W53955   8.779  11.594   1.508
11945W        W53956  19.819   6.334   3.082
11946W        W53957  13.629  11.784  14.562
11947W        W53958  16.449   5.354   9.232
11948W        W53959  17.089   9.824  15.042
11949W        W53960  14.589  11.484   1.748
11950W        W53961   5.799   2.524  10.872
11951W        W53962  20.239  21.871  10.492
11952W        W53963  20.469  18.334   2.742
11953W        W53964   8.829  11.414   8.062
11954W        W53965  10.089  25.281   7.972
11955W        W53966  16.139  14.194   4.142
11956W        W53967  13.089   8.454  14.362
11957W        W53968  23.129  20.744   7.092
11958W        W53969  16.929  23.261   8.962
11959W        W53970   7.809   7.614   3.002
11960W        W53971   3.239   4.244  14.632
11961W        W53972   5.029  15.634   1.498
11962W        W53973   3.239   2.464   2.428
11963W        W53974  12.919   3.774   2.158
11964W        W53975  13.249   5.634   4.832
11965W        W53976  21.369   8.854   8.962
11966W        W53977  11.079  14.034   3.052
11967W        W53978  18.679  13.414   1.198
11968W        W53979  23.229  10.284   0.648
11969W        W53980  17.509   3.794   1.628
11970W        W53981   2.769  16.734   1.638
11971W        W53982  20.179   6.354   1.648
11972W        W53983   9.519  12.004   8.742
11973W        W53984  16.159  12.594   1.728
11974W        W53985   9.289   7.304   0.268
11975W        W53986   1.449   3.744   9.122
11976W        W53987  10.309   3.874   0.908
11977W        W53988  18.129  16.344   8.632
11978W        W53989  25.079  18.054   8.052
11979W        W53990  12.789  16.994  10.492
11980W        W53991  20.719  10.544  10.702
11981W        W53992   3.199  21.224  10.852
11982W        W53993  20.759   9.434   6.982
11983W        W53994   2.069   1.474  10.062
11984W        W53995   6.949  12.524  15.562
11985W        W53996  14.449  11.044   1.008
11986W        W53997  21.499   1.784   0.268
11987W        W53998  11.899  21.541   4.332
11988W        W53999  14.209  16.184   1.178
11989W        W54000  22.579  20.124   2.552
11990W        W54001  12.849   0.494   2.632
11991W        W54002   7.049  16.464  15.592
11992W        W54003   6.499  23.241   2.982
11993W        W54004  16.189  19.764  11.102
11994W        W54005   5.609   5.454   7.572
11995W        W54006  15.959  10.844   8.782
11996W        W54007  15.159  21.034   0.218
11997W        W54008  10.319  24.781   2.388
11998W        W54009  14.479  17.014   1.508
11999W        W54010   5.829   5.954   2.148
12000W        W54011  11.229   2.264   9.982
12001W        W54012  17.489   1.744   2.148
12002W        W54013   4.159  17.614   8.422
12003W        W54014  11.109   1.564   0.468
12004W        W54015  22.709  21.951   1.288
12005W        W54016  20.179  25.521  11.722
12006W        W54017  15.309  22.131  11.242
12007W        W54018   4.639  19.014   1.618
12008W        W54019  15.339  15.744   7.822
12009W        W54020  15.509   0.344   8.672
12010W        W54021   6.769  25.421   4.402
12011W        W54022   7.129  20.704   1.888
12012W        W54023  14.069  20.324   8.902
12013W        W54024  15.419  17.424   3.032
12014W        W54025  13.049  16.104  14.592
12015W        W54026  17.379  14.164   7.642
12016W        W54027  11.289  16.184  10.032
12017W        W54028   7.989   9.174   8.962
12018W        W54029   7.899  22.381  11.042
12019W        W54030   4.439  22.111   8.952
12020W        W54031   9.029  19.634   9.002
12021W        W54032   7.469  23.201   8.452
12022W        W54033  21.769  24.581  15.852
12023W        W54034  15.549   0.254   8.152
12024W        W54035  18.849  11.284   9.322
12025W        W54036  11.729  24.061   8.982
12026W        W54037  12.749  23.281   0.958
12027W        W54038  17.229  19.824   0.418
12028W        W54039   9.309   7.864  14.242
12029W        W54040  11.059  10.454  15.402
12030W        W54041   1.509   0.714  10.592
12031W        W54042  18.119   6.354   9.662
12032W        W54043  11.449  13.314  14.422
12033W        W54044  20.649  15.564   2.782
12034W        W54045  19.299   5.544   7.922
12035W        W54046  20.729   4.474  10.512
12036W        W54047  22.409   1.804   1.748
12037W        W54048  16.979  22.681   0.438
12038W        W54049  18.219   6.104   0.558
12039W        W54050   5.319  23.241   9.052
12040W        W54051  22.129   9.864   8.082
12041W        W54052  20.899   3.514   0.418
12042W        W54053   3.939  21.711   1.408
12043W        W54054  14.749  17.824   3.462
12044W        W54055  17.859  21.254  11.422
12045W        W54056  23.849   1.604   1.098
12046W        W54057  17.069   5.394   0.158
12047W        W54058  14.449  23.461   1.048
12048W        W54059  15.889  12.074   1.938
12049W        W54060   9.889  24.421   1.828
12050W        W54061  20.329  15.894   9.832
12051W        W54062  18.269   1.934   9.482
12052W        W54063   1.679  18.004   1.108
12053W        W54064  23.879  19.974   3.292
12054W        W54065   6.089   9.194   0.668
12055W        W54066  20.049  23.321   1.878
12056W        W54067  11.879   4.384   0.228
12057W        W54068   2.319  23.311   0.878
12058W        W54069   3.589  12.274   9.292
12059W        W54070   5.849  15.414   3.122
12060W        W54071  17.139   9.004   1.128
12061W        W54072   2.089  10.564   7.512
12062W        W54073   5.969  20.284  11.152
12063W        W54074   3.449   4.784  15.412
12064W        W54075   6.329  25.331   0.318
12065W        W54076  15.629  24.681   1.038
12066W        W54077   6.959  17.774   8.772
12067W        W54078  15.269  13.504   3.482
12068W        W54079  15.629  13.024  10.322
12069W        W54080   1.479  16.564   7.322
12070W        W54081   5.919  12.364   3.112
12071W        W54082  20.469   4.364   8.682
12072W        W54083   0.379   1.624  10.752
12073W        W54084  25.399  21.631   7.882
12074W        W54085   5.839   4.254  10.472
12075W        W54086  11.179  13.534   3.442
12076W        W54087  15.009  24.221   8.042
12077W        W54088   1.609   8.564  10.352
12078W        W54089  19.249   9.464   9.492
12079W        W54090   6.319   4.764   1.698
12080W        W54091   4.399  25.341   1.248
12081W        W54092  17.309  21.371   2.078
12082W        W54093  23.769  12.264   0.328
12083W        W54094  25.199  19.674   1.868
12084W        W54095  19.489   5.224   2.348
12085W        W54096  19.929   7.984  10.142
12086W        W54097   0.969  24.731   8.662
12087W        W54098   4.449  24.301   9.162
12088W        W54099   5.609  15.744   2.792
12089W        W54100  20.079   9.554   1.278
12090W        W54101   0.379  16.364   3.232
12091W        W54102  23.969   8.944   7.452
12092W        W54103   4.909  23.421   2.038
12093W        W54104   8.729  19.124   0.978
12094W        W54105  14.109  11.454   1.118
12095W        W54106  24.379   8.814  11.912
12096W        W54107  13.799   2.624   9.202
12097W        W54108  20.409  17.414   2.198
12098W        W54109  14.459   4.334  10.942
12099W        W54110  15.669  16.474  10.662
12100W        W54111  11.449  13.674   2.932
12101W        W54112  23.349  20.794  11.792
12102W        W54113   2.449  17.064   0.568
12103W        W54114  24.749  17.284  10.442
12104W        W54115  11.939   9.924  14.492
12105W        W54116  24.069  21.521  11.852
12106W        W54117  18.099  13.154  10.862
12107W        W54118  22.719  16.834   8.682
12108W        W54119   0.499   7.734  11.042
12109W        W54120  20.309  21.324   8.542
12110W        W54121  25.209   5.724  10.922
12111W        W54122   0.809  14.664   1.038
12112W        W54123  19.419  14.824  11.012
12113W        W54124  15.939   8.804   8.792
12114W        W54125  21.239  16.824   0.278
12115W        W54126  25.019  24.201   1.418
12116W        W54127  16.229   9.474  10.332
12117W        W54128   5.359  12.094   9.812
12118W        W54129   3.759  21.441   1.028
12119W        W54130   7.009  21.184   3.172
12120W        W54131   7.329  25.261   1.208
12121W        W54132  10.279  13.854   9.652
12122W        W54133   5.739  10.494   0.168
12123W        W54134  22.999   0.184  10.212
12124W        W54135   2.239  16.144   9.182
12125W        W54136   1.279   4.994  10.562
12126W        W54137   1.519   9.094   8.682
12127W        W54138  11.989  22.901   3.762
12128W        W54139   0.649  23.051  10.932
12129W        W54140  14.799   7.444   8.162
12130W        W54141  10.199   4.594   9.462
12131W        W54142  20.229   6.164   2.792
12132W        W54143  19.539  17.854  10.712
12133W        W54144  12.389   8.074  14.902
12134W        W54145  12.309   2.844  10.042
12135W        W54146  14.839   6.774   3.052
12136W        W54147   4.849  23.361  11.052
12137W        W54148   8.019   1.734  14.412
12138W        W54149   8.019  19.444  11.382
12139W        W54150   2.069  12.714  15.722
12140W        W54151  14.279   8.744   9.912
12141W        W54152   2.819  11.534   1.368
12142W        W54153   1.629  13.174   3.232
12143W        W54154   0.819  19.324   9.462
12144W        W54155  12.819  16.064   5.202
12145W        W54156  13.159   2.704  10.382
12146W        W54157  23.509  13.124   8.362
12147W        W54158   8.739   9.984  15.392
12148W        W54159  23.449  21.074   7.192
12149W        W54160  12.899   9.234   4.712
12150W        W54161  14.749  22.621   1.948
12151W        W54162  13.239  19.074   0.628
12152W        W54163  10.999   3.574   0.928
12153W        W54164  11.499   4.934   1.228
12154W        W54165  15.959   1.364  15.692
12155W        W54166  14.989   0.754   2.752
12156W        W54167  21.129  10.744  11.542
12157W        W54168   5.159  15.794   9.532
12158W        W54169  13.159  14.964   4.192
12159W        W54170  12.599  16.084   0.698
12160W        W54171   4.359  17.064   7.732
12161W        W54172   3.399   6.144   1.088
12162W        W54173   9.139   9.934   8.892
12163W        W54174  24.749  23.491  12.422
12164W        W54175  25.189  22.391   0.728
12165W        W54176   1.489  18.984   2.712
12166W        W54177  12.289   4.784   1.708
12167W        W54178  14.659  18.964  10.662
12168W        W54179   2.799  11.054   1.648
12169W        W54180  11.329  17.444   1.648
12170W        W54181  11.069  11.244   1.758
12171W        W54182   2.459  10.174   2.552
12172W        W54183  17.179  23.861  10.502
12173W        W54184  24.479  14.234   1.778
12174W        W54185  20.299  12.424  10.392
12175W        W54186  18.779   5.674  10.282
12176W        W54187  20.919   0.754   0.708
12177W        W54188   3.499   2.964   0.948
12178W        W54189   2.399  15.864  11.282
12179W        W54190   2.229   7.864   7.302
12180W        W54191  16.719  20.684   2.942
12181W        W54192  12.359   3.964   8.712
12182W        W54193   1.909   7.154   7.742
12183W        W54194  16.829  16.954   0.388
12184W        W54195  13.249  24.671  11.182
12185W        W54196   7.659  23.721  15.872
12186W        W54197  10.869  19.984   9.422
12187W        W54198   8.129   9.394   9.412
12188W        W54199   1.449  11.004   7.642
12189W        W54200  21.569  15.614   2.088
12190W        W54201   6.279  21.621   4.522
12191W        W54202  19.749  21.791   7.432
12192W        W54203   0.499  17.764   2.498
12193W        W54204  19.889  15.654  15.482
12194W        W54205  23.819   1.024   1.888
12195W        W54206   3.709  19.544   9.852
12196W        W54207   1.369   9.854  15.092
12197W        W54208   4.359   5.464   7.442
12198W        W54209  20.719   7.514   8.732
12199W        W54210   5.589   2.704   2.672
12200W        W54211  16.789  21.911   9.432
12201W        W54212  18.819   5.444   9.692
12202W        W54213   3.619  22.521   9.362
12203W        W54214  10.219  24.251   8.022
12204W        W54215  18.249  13.724   9.662
12205W        W54216  19.619  24.331  11.672
12206W        W54217  12.619  24.421   0.308
12207W        W54218   6.369  24.111   1.908
12208W        W54219  21.289  22.291   8.602
12209W        W54220  11.599  10.014   0.638
12210W        W54221  17.649   7.384   3.522
12211W        W54222  25.189  22.521   8.842
12212W        W54223  20.699  23.371  11.892
12213W        W54224  22.929   8.824  11.542
12214W        W54225  24.189  23.871  11.092
12215W        W54226  10.279  23.101   3.182
12216W        W54227  25.209   3.534   8.102
12217W        W54228  22.319   1.494   8.582
12218W        W54229   3.119  12.264   7.692
12219W        W54230   7.779  25.241   1.888
12220W        W54231  21.919  14.034   0.758
12221W        W54232  20.869   7.414   1.398
12222W        W54233   4.919  21.421  10.022
12223W        W54234   8.939   4.244   9.552
12224W        W54235  22.869  19.134   7.142
12225W        W54236   7.439  23.961   1.108
12226W        W54237   6.789  12.424   3.262
12227W        W54238   5.569  10.114   2.542
12228W        W54239  20.639   8.664  11.162
12229W        W54240  15.709  12.034  14.842
12230W        W54241   3.309   8.374   1.838
12231W        W54242  18.549  24.751  12.952
12232W        W54243  15.069   2.384  10.102
12233W        W54244  22.949  15.514   1.888
12234W        W54245   8.879   0.534   0.878
12235W        W54246  15.399  19.894   9.922
12236W        W54247  19.249  25.381   2.018
12237W        W54248   6.889  16.294   0.728
12238W        W54249   2.509  18.114   9.292
12239W        W54250   2.539  20.234   1.188
12240W        W54251  22.819   9.614   9.082
12241W        W54252  17.949  22.541  11.862
12242W        W54253   6.219  10.044   8.922
12243W        W54254   6.729  18.324   8.962
12244W        W54255  11.069  10.364   8.142
12245W        W54256  17.239  14.084  11.032
12246W        W54257  20.249  24.371   2.652
12247W        W54258   8.739   1.604  15.152
12248W        W54259  14.019  14.704   5.602
12249W        W54260  10.339   1.744  14.502
12250W        W54261   5.319   2.234   7.912
12251W        W54262  20.029  19.344   3.192
12252W        W54263  21.319  22.041   2.702
12253W        W54264  13.379   4.534   3.202
12254W        W54265  23.599   1.554  15.692
12255W        W54266   2.869  14.634   3.062
12256W        W54267  18.259  14.534  10.392
12257W        W54268   3.459  14.894   2.792
12258W        W54269   5.099  12.264   2.258
12259W        W54270  23.579  14.114   2.622
12260W        W54271   2.779  16.274  11.412
12261W        W54272  25.559   8.804   1.708
12262W        W54273  12.109   7.184   3.152
12263W        W54274  21.269   7.584   3.102
12264W        W54275   0.279  19.534   7.292
12265W        W54276  21.119  20.664   8.052
12266W        W54277   5.619   8.764   9.742
12267W        W54278  16.759   5.504   3.492
12268W        W54279  18.209   1.904  10.302
12269W        W54280  11.699   6.064  14.972
12270W        W54281   1.999  13.754   1.618
12271W        W54282   1.219   8.594   1.148
12272W        W54283  24.089  15.204  10.212
12273W        W54284   0.389   8.284  11.412
12274W        W54285  17.499   4.904   8.122
12275W        W54286  12.219   4.484  15.242
12276W        W54287  13.279   6.074   1.628
12277W        W54288  25.309  18.994   2.398
12278W        W54289   9.359   4.944   9.542
12279W        W54290   4.269   4.194   7.902
12280W        W54291  13.049   4.304   1.338
12281W        W54292  12.919   6.484   9.832
12282W        W54293   7.199  23.731   7.592
12283W        W54294  20.159  23.091   9.342
12284W        W54295  20.079   8.214   0.308
12285W        W54296   2.289  13.544   9.352
12286W        W54297  21.819  24.121   0.528
12287W        W54298  24.169   8.744   3.792
12288W        W54299  24.149   4.744   9.932
12289W        W54300  11.369   2.384   0.128
12290W        W54301   3.749  14.144   8.322
12291W        W54302   9.929   7.744   9.312
12292W        W54303   9.919  15.234   3.752
12293W        W54304  13.269   4.394   2.722
12294W        W54305  19.829  18.674  15.622
12295W        W54306   7.679   9.054   0.358
12296W        W54307  19.979  15.664   8.992
12297W        W54308  22.869   5.334  10.292
12298W        W54309  25.589   2.474  15.582
12299W        W54310  24.529  24.121  10.812
12300W        W54311  17.969   9.934   4.142
12301W        W54312   5.849  16.304   2.982
12302W        W54313  15.419  14.894  10.032
12303W        W54314  22.489   9.424  10.382
12304W        W54315  25.399  20.554   4.142
12305W        W54316  21.189  23.001   1.888
12306W        W54317  18.669   9.244   1.328
12307W        W54318   4.909   8.024   0.858
12308W        W54319   1.409  21.551   8.372
12309W        W54320   2.489   3.594   0.498
12310W        W54321  12.689  22.171   8.552
12311W        W54322  24.849   6.194  11.902
12312W        W54323  13.709   6.174   2.812
12313W        W54324   3.819   3.694   3.222
12314W        W54325  19.249  16.634   3.442
12315W        W54326   2.119   5.794   9.092
12316W        W54327   8.019  24.441   7.782
12317W        W54328  15.989   4.524   4.662
12318W        W54329   9.619   0.814   9.222
12319W        W54330  14.299  21.811   1.768
12320W        W54331  19.099  18.394   2.448
12321W        W54332  21.509  16.864  11.702
12322W        W54333   8.969   3.174   2.238
12323W        W54334  23.689  14.154  10.212
12324W        W54335   4.529  21.154   0.388
12325W        W54336   3.499  14.444  10.602
12326W        W54337  20.279   0.714  10.142
12327W        W54338   8.839  20.744   0.598
12328W        W54339  14.149  22.671  10.522
12329W        W54340  20.569   8.654   7.422
12330W        W54341  19.269  19.254   1.118
12331W        W54342  10.739   7.534   2.882
12332W        W54343  18.089   2.464  10.682
12333W        W54344  22.439  14.884   2.892
12334W        W54345   1.489  19.474   3.072
12335W        W54346   1.249   4.394   0.478
12336W        W54347  12.679   7.564   2.552
12337W        W54348  23.289  23.081   2.228
12338W        W54349  24.299  22.531  10.982
12339W        W54350   3.349   0.134   2.308
12340W        W54351   6.939  14.444  15.672
12341W        W54352   0.579   1.934   0.858
12342W        W54353  20.559   0.614   0.408
12343W        W54354   4.289   0.994   2.048
12344W        W54355   8.249   3.614   1.408
12345W        W54356   9.749   4.724   3.312
12346W        W54357  11.389   2.084   2.922
12347W        W54358   6.399  23.121   0.948
12348W        W54359  11.339   2.594   2.832
12349W        W54360  10.809   7.914   3.962
12350W        W54361   2.119  17.974  15.762
12351W        W54362   5.289  15.874   1.898
12352W        W54363  14.669   1.124   2.512
12353W        W54364  12.469  12.044   9.892
12354W        W54365  19.859  12.574   0.858
12355W        W54366  24.849   1.894   0.558
12356W        W54367   6.449  23.521  14.972
12357W        W54368  15.989  15.174   0.378
12358W        W54369   5.149  15.164   3.342
12359W        W54370   3.929  12.214   2.008
12360W        W54371  23.729  13.454  11.472
12361W        W54372   4.449  11.694   1.478
12362W        W54373  15.079  19.774  10.992
12363W        W54374   0.259  19.294   2.782
12364W        W54375   6.799  23.721   3.422
12365W        W54376  18.769   0.444   1.898
12366W        W54377  21.309   4.284   6.982
12367W        W54378  13.669   7.454  10.052
12368W        W54379  18.469  14.164  15.572
12369W        W54380   4.649   6.674  15.682
12370W        W54381   6.449  12.804  11.372
12371W        W54382  21.329  20.384  15.492
12372W        W54383  25.109  16.944  15.812
12373W        W54384  19.259  21.254  10.092
12374W        W54385   9.419  20.934  15.562
12375W        W54386   9.129  17.724   0.618
12376W        W54387  14.149   4.684  10.292
12377W        W54388  12.809   6.884   8.592
12378W        W54389  24.619   8.844   1.688
12379W        W54390  11.059  14.744   1.918
12380W        W54391   0.759   1.594  15.042
12381W        W54392  23.379  17.394   2.972
12382W        W54393  21.949  16.764   7.652
12383W        W54394   5.629   6.594  15.702
12384W        W54395   4.779  20.484   2.218
12385W        W54396   9.809   9.064   3.902
12386W        W54397   1.469  21.034   1.758
12387W        W54398  11.749   9.964  15.002
12388W        W54399   2.269  15.364   0.968
12389W        W54400  19.319   0.834   3.602
12390W        W54401  20.699  22.201  11.172
12391W        W54402   4.859  12.484   0.888
12392W        W54403  16.659  12.344   0.758
12393W        W54404  20.929   4.854   3.812
12394W        W54405  13.609  13.654   0.068
12395W        W54406  16.399  16.524   1.018
12396W        W54407   9.179  16.264   3.742
12397W        W54408  25.269  23.801  11.142
12398W        W54409  12.189  24.671   0.468
12399W        W54410  18.149   9.394  11.332
12400W        W54411  12.879  21.941   1.658
12401W        W54412   0.369  14.974   2.118
12402W        W54413  23.449   0.474   0.398
12403W        W54414  12.159  23.371  11.362
12404W        W54415   1.109  15.194   2.208
12405W        W54416  22.139   0.024   7.872
12406W        W54417   3.389  15.954   1.378
12407W        W54418  10.989  13.294   4.632
12408W        W54419   0.379  22.591   3.282
12409W        W54420   0.379   5.124  10.512
12410W        W54421   0.059  21.104  10.812
12411W        W54422   0.059  14.224   0.818
12412W        W54423   5.709   0.234   9.922
12413W        W54424   3.519  12.394   7.332
12414W        W54425   3.559   3.724  10.132
12415W        W54426   2.389  16.724  10.422
12416W        W54427   9.429  19.024   3.192
12417W        W54428   8.089  16.764  15.642
12418W        W54429  13.039  22.931   2.468
12419W        W54430  10.379   6.374   0.198
12420W        W54431  15.389  16.424  10.262
12421W        W54432  24.209   3.484   7.652
12422W        W54433   0.139   8.714   3.102
12423W        W54434   5.169  12.104   0.998
12424W        W54435   3.419  17.594  10.792
12425W        W54436   6.359  19.344  10.352
12426W        W54437  21.989   6.594   3.042
12427W        W54438  20.759  17.754   2.298
12428W        W54439  17.879  22.101   2.942
12429W        W54440  21.519   8.304   0.478
12430W        W54441   7.669  14.774   2.902
12431W        W54442  17.719   9.344  10.792
12432W        W54443   7.489   4.514   7.812
12433W        W54444   1.859  24.921   1.988
12434W        W54445   7.559   8.634   2.972
12435W        W54446   2.729  11.824   3.072
12436W        W54447   3.329  10.294  11.722
12437W        W54448   6.669  18.874   8.952
12438W        W54449   6.189  22.931   9.192
12439W        W54450   0.139  13.504  15.432
12440W        W54451   8.709  22.691   0.988
12441W        W54452  13.639  12.614   0.048
12442W        W54453  18.749  13.194  15.822
12443W        W54454  24.439  16.724   1.178
12444W        W54455  17.029  16.504   2.308
12445W        W54456  13.659   9.914   0.808
12446W        W54457  12.489  22.491   0.478
12447W        W54458   4.869   1.184  10.372
12448W        W54459   4.559  24.641  11.532
12449W        W54460   1.549  21.421   0.918
12450W        W54461   7.179  10.854  10.302
12451W        W54462   0.569   6.334   9.992
12452W        W54463  21.949  22.841   8.702
12453W        W54464   0.379  11.664  15.292
12454W        W54465   3.499  13.394   3.192
12455W        W54466  11.769   8.674   4.612
12456W        W54467  20.099   3.214   0.988
12457W        W54468   2.889   1.024   4.122
12458W        W54469  15.479  10.454   3.992
12459W        W54470   4.279  15.654   8.652
12460W        W54471  21.699  15.264   3.322
12461W        W54472   8.109  21.014  11.012
12462W        W54473  10.959  16.024   1.008
12463W        W54474   1.309   2.004   8.312
12464W        W54475  21.039  18.774   3.782
12465W        W54476   2.929  21.881   3.832
12466W        W54477  15.169   9.494   4.062
12467W        W54478   2.209  13.394   2.108
12468W        W54479  17.859   6.744  10.792
12469W        W54480   4.289   1.044   0.468
12470W        W54481   6.549   0.864   3.462
12471W        W54482  12.649  24.641   9.642
12472W        W54483  16.629  24.561   9.182
12473W        W54484  18.979  22.211   1.818
12474W        W54485   4.739  21.324  15.162
12475W        W54486   4.649  16.674   0.258
12476W        W54487  11.599  21.761   1.998
12477W        W54488   3.499   4.034   9.372
12478W        W54489   5.359  14.834   7.592
12479W        W54490  14.029  19.264   3.702
12480W        W54491  23.049   1.114   2.992
12481W        W54492   6.609  21.134   4.692
12482W        W54493   7.429   1.934   0.498
12483W        W54494  22.719  14.034  11.842
12484W        W54495  21.259  22.641   8.272
12485W        W54496  17.579  18.004   9.492
12486W        W54497  23.969   5.864   7.572
12487W        W54498  14.529  20.214  11.472
12488W        W54499  24.999  11.524   8.232
12489W        W54500  22.079   2.084  11.772
12490W        W54501  19.299   6.344   1.348
12491W        W54502  14.109  11.214   0.498
12492W        W54503  15.309   3.174  10.152
12493W        W54504  22.679  21.781   8.222
12494W        W54505  23.059  10.284   2.138
12495W        W54506   0.499  20.944   1.918
12496W        W54507   0.199   2.794  10.052
12497W        W54508   4.129  21.631   3.582
12498W        W54509   4.599  11.994   0.708
12499W        W54510   3.069   6.054   2.662
12500W        W54511   9.819   6.724   8.912
12501W        W54512  16.469   6.224   0.768
12502W        W54513   2.019   4.224  15.552
12503W        W54514  21.299  23.201   9.442
12504W        W54515   2.349   2.304  15.572
12505W        W54516  14.139  25.331   2.498
12506W        W54517  22.119  19.064   7.402
12507W        W54518   2.259   6.974   9.512
12508W        W54519  24.909  12.594   3.832
12509W        W54520  16.879   9.944   9.332
12510W        W54521  18.319  12.174   9.252
12511W        W54522  18.199  18.284   0.368
12512W        W54523  23.389  17.874   9.982
12513W        W54524  20.049  17.124   7.992
12514W        W54525  19.849  11.424  11.412
12515W        W54526  23.079   3.834   8.352
12516W        W54527   2.329  22.621   4.262
12517W        W54528   7.189  14.334   2.672
12518W        W54529  11.799   7.164   0.018
12519W        W54530  12.479  23.541  10.972
12520W        W54531  12.959  15.174  14.452
12521W        W54532  10.769  17.364   9.702
12522W        W54533  21.169  19.564   1.038
12523W        W54534   6.229  23.301   3.802
12524W        W54535  14.469  13.924   3.892
12525W        W54536  10.459  14.654   9.772
12526W        W54537  24.459   1.954   3.342
12527W        W54538  22.459  14.954   3.722
12528W        W54539  15.839   9.884   1.288
12529W        W54540  20.369   6.974   0.258
12530W        W54541  14.749   8.154   0.118
12531W        W54542  15.569   2.564   4.472
12532W        W54543  22.879   7.344   0.618
12533W        W54544  23.949   0.144  11.212
12534W        W54545   3.189   2.974   7.182
12535W        W54546   2.969  19.744  10.482
12536W        W54547  15.269  12.744   2.278
12537W        W54548   5.949  25.001   0.108
12538W        W54549  19.419  24.091   3.242
12539W        W54550  20.999  14.834   1.658
12540W        W54551   5.539   5.214   9.912
12541W        W54552   0.309   3.054   9.132
12542W        W54553  18.629   8.804  10.082
12543W        W54554  25.229   4.914   8.882
12544W        W54555   6.579  20.424   0.198
12545W        W54556   5.109  16.284   9.292
12546W        W54557  21.199  17.604   9.982
12547W        W54558  12.869   8.034  14.872
12548W        W54559  11.149   7.184   1.478
12549W        W54560   5.569  14.484   0.548
12550W        W54561  13.539   6.604   9.512
12551W        W54562  24.849  18.084   3.392
12552W        W54563   1.849  11.224  10.932
12553W        W54564   4.039   7.424   8.152
12554W        W54565   0.069   6.424  15.662
12555W        W54566   5.599  23.111   3.212
12556W        W54567  14.599  17.824   0.708
12557W        W54568   6.879   8.614   0.628
12558W        W54569  22.099  12.374   3.152
12559W        W54570  10.249  11.104   0.258
12560W        W54571  19.029   9.754   2.208
12561W        W54572  22.199   0.494  11.322
12562W        W54573  25.469  25.331   1.768
12563W        W54574   6.929  17.414   9.842
12564W        W54575  13.389  13.634   3.622
12565W        W54576   1.199  11.564   9.232
12566W        W54577  24.469   5.884  11.102
12567W        W54578   1.049   2.474   3.022
12568W        W54579  10.229  11.644   4.772
12569W        W54580   0.379   4.304   1.448
12570W        W54581  19.159  19.604  11.052
12571W        W54582   5.099  25.091   9.612
12572W        W54583  12.449   7.274   1.628
12573W        W54584   0.919  13.374  11.712
12574W        W54585  12.369   0.344   9.642
12575W        W54586  18.259  17.134   0.558
12576W        W54587  25.359   5.144  11.672
12577W        W54588  12.029  23.071   2.622
12578W        W54589   9.799  19.104  11.092
12579W        W54590  23.169  16.384   7.522
12580W        W54591   2.229   6.604   8.772
12581W        W54592   8.009   1.124   1.098
12582W        W54593  12.829  19.794   0.768
12583W        W54594   4.359  23.321   2.048
12584W        W54595   5.349   6.974  10.202
12585W        W54596  17.089  18.144   3.112
12586W        W54597   8.719  21.901   3.712
12587W        W54598  18.309  18.424  10.012
12588W        W54599   2.619  15.174   1.358
12589W        W54600  20.799  10.644   8.522
12590W        W54601   8.429   4.354   9.672
12591W        W54602  16.929  10.734   3.832
12592W        W54603   4.579   8.174  15.602
12593W        W54604  24.619  16.054   2.602
12594W        W54605   1.879  14.454  10.682
12595W        W54606  11.479  21.064   3.032
12596W        W54607  14.099   3.034   1.798
12597W        W54608  25.499  18.014   8.322
12598W        W54609  20.939  17.954   0.698
12599W        W54610  16.139  18.824   9.952
12600W        W54611  12.589  15.194  15.412
12601W        W54612   8.339  17.994  10.102
12602W        W54613   5.079   3.424   1.728
12603W        W54614   9.319   6.774   0.268
12604W        W54615   5.369  17.234   0.878
12605W        W54616   0.919   2.664   0.368
12606W        W54617  22.699  20.824   0.998
12607W        W54618   9.019   2.044   8.462
12608W        W54619   0.199  17.104   0.758
12609W        W54620  16.859  10.244   1.618
12610W        W54621   3.709   2.214   8.912
12611W        W54622  17.749   8.344   0.728
12612W        W54623   8.479  15.144  10.212
12613W        W54624  10.419  19.764   3.982
12614W        W54625   3.739  22.071   8.602
12615W        W54626  22.549   6.824   1.628
12616W        W54627  24.739   2.154  10.862
12617W        W54628   1.929  20.214  11.842
12618W        W54629  12.989  18.344   2.258
12619W        W54630   8.759   8.224   1.478
12620W        W54631   7.609   0.954   9.672
12621W        W54632   5.519   7.334  15.642
12622W        W54633  24.689  12.574   7.572
12623W        W54634  20.249  10.244  15.342
12624W        W54635  22.029  14.264   0.328
12625W        W54636   2.859  21.084   1.418
12626W        W54637  20.929  20.604   9.212
12627W        W54638   5.339  15.934   0.758
12628W        W54639   2.539  20.914   2.532
12629W        W54640  23.359  23.251   0.438
12630W        W54641  24.909   2.324   1.948
12631W        W54642  18.739  12.664  15.702
12632W        W54643   1.789  14.404  15.842
12633W        W54644   8.329   2.714   9.322
12634W        W54645   9.159   8.154  10.522
12635W        W54646  14.789  10.684   3.362
12636W        W54647  17.609   4.754  15.412
12637W        W54648  24.369  15.874   3.012
12638W        W54649  11.769   2.534   9.022
12639W        W54650  14.779  10.264   3.072
12640W        W54651  21.839   2.954   2.972
12641W        W54652  24.359   9.274   8.872
12642W        W54653  20.959   3.054   0.348
12643W        W54654   3.459  14.104   8.792
12644W        W54655   9.999  11.904   8.762
12645W        W54656  15.059  22.391   0.258
12646W        W54657   3.219  21.324  12.102
12647W        W54658  21.379   6.894   7.532
12648W        W54659  10.319   2.964   3.182
12649W        W54660  18.359  15.804   1.358
12650W        W54661   3.899   2.914   1.768
12651W        W54662  12.999   0.424  15.792
12652W        W54663   7.899   1.614   3.422
12653W        W54664  12.499   2.804   3.712
12654W        W54665   8.609   8.944  15.252
12655W        W54666  22.579  24.541   0.808
12656W        W54667  20.199   4.954   2.478
12657W        W54668  24.059   0.314   1.168
12658W        W54669   0.789  25.031   3.652
12659W        W54670   9.819   5.154   8.712
12660W        W54671  24.839   7.194  11.422
12661W        W54672  20.189   2.504  11.352
12662W        W54673  14.809  20.934   2.208
12663W        W54674  15.199   3.294   3.582
12664W        W54675  21.309  13.414   8.062
12665W        W54676  15.999  10.024  15.552
12666W        W54677  20.609  16.584   7.092
12667W        W54678  16.999   4.084   7.432
12668W        W54679   6.509  13.974   3.262
12669W        W54680  23.319   6.004   0.668
12670W        W54681  23.489   1.054  10.382
12671W        W54682   4.929  16.534   1.258
12672W        W54683  18.839   9.474  10.652
12673W        W54684  25.219   6.834   2.158
12674W        W54685  15.869  16.714   8.832
12675W        W54686   6.949  19.754   3.132
12676W        W54687  18.939  15.274   2.792
12677W        W54688  20.659  12.374   1.758
12678W        W54689  19.939   3.954  10.922
12679W        W54690  13.699   9.804   4.252
12680W        W54691  10.129  16.654   8.182
12681W        W54692   6.819   6.394   9.062
12682W        W54693   5.229   2.304   0.928
12683W        W54694  24.459  10.554   7.982
12684W        W54695   8.429  17.284   1.738
12685W        W54696   9.169  19.174   0.498
12686W        W54697  13.129   8.544   3.642
12687W        W54698   4.209  23.801   2.498
12688W        W54699   1.969  16.274  10.352
12689W        W54700  20.659  17.314  11.082
12690W        W54701   0.649  11.454   2.912
12691W        W54702   9.199  17.834   9.502
12692W        W54703   6.289  21.214  11.062
12693W        W54704  23.859  16.734   3.982
12694W        W54705  24.389  11.094   1.198
12695W        W54706  13.199   9.214  10.022
12696W        W54707  10.979  19.334   1.788
12697W        W54708  18.359  22.241   6.842
12698W        W54709  15.269   4.284   9.222
12699W        W54710  18.689   7.864   2.502
12700W        W54711  23.249  22.171   1.798
12701W        W54712   1.789   0.334   9.852
12702W        W54713  16.969   7.964   4.572
12703W        W54714  14.429  16.104   2.238
12704W        W54715  19.969   4.024   2.428
12705W        W54716   4.629  18.854   1.068
12706W        W54717   3.799  13.684   8.722
12707W        W54718   1.429   1.274   8.712
12708W        W54719  14.629   0.114   2.652
12709W        W54720   7.869   8.914   9.532
12710W        W54721  12.529   1.134   8.582
12711W        W54722  13.599   0.254  11.542
12712W        W54723  21.269  22.701   9.282
12713W        W54724  19.319  16.884   3.002
12714W        W54725   6.549  14.204  11.292
12715W        W54726  11.379  21.094   0.478
12716W        W54727  19.469   8.714   9.802
12717W        W54728   1.289   4.774   1.938
12718W        W54729  17.879   1.124   3.302
12719W        W54730  18.339   7.544   9.332
12720W        W54731   4.719  15.824  15.152
12721W        W54732  15.409   7.094   8.802
12722W        W54733  23.399  19.984   3.222
12723W        W54734  20.129  10.684   0.618
12724W        W54735   7.989  20.114  10.072
12725W        W54736   4.719  21.204   1.488
12726W        W54737   5.399   8.914   8.762
12727W        W54738  16.539   6.934   1.168
12728W        W54739   1.659  23.031   9.482
12729W        W54740   0.079  25.491   9.022
12730W        W54741  16.679  11.064   2.872
12731W        W54742  20.269  14.274  10.712
12732W        W54743  20.259  16.854   3.582
12733W        W54744  22.869   9.944   7.982
12734W        W54745  11.759   3.874   3.532
12735W        W54746  23.499   6.384   1.438
12736W        W54747  10.909   9.714  14.752
12737W        W54748   6.979   2.664  14.612
12738W        W54749   7.179  20.284   9.142
12739W        W54750   2.449  17.604   0.678
12740W        W54751  10.609   1.884   9.352
12741W        W54752  20.749   7.534   9.302
12742W        W54753   9.049  23.971   3.402
12743W        W54754  20.939   6.404   2.228
12744W        W54755   6.399  17.444  10.412
12745W        W54756  17.489  17.734   9.032
12746W        W54757   2.549  18.994   2.792
12747W        W54758   5.379  21.841   9.132
12748W        W54759   2.829   2.844   0.048
12749W        W54760  13.549  20.644   3.762
12750W        W54761   6.899   3.714   1.718
12751W        W54762  15.639  15.504   0.278
12752W        W54763  17.289  23.011   3.502
12753W        W54764  16.979   7.444  15.122
12754W        W54765  15.719   9.704   0.058
12755W        W54766  15.599  16.434   3.912
12756W        W54767  17.269   8.154  15.752
12757W        W54768   0.889   3.734   7.292
12758W        W54769   3.329   0.034   8.252
12759W        W54770   0.399   0.014   2.632
12760W        W54771  18.509  20.784   0.698
12761W        W54772   2.499   8.464   1.828
12762W        W54773  16.099  22.781  15.842
12763W        W54774  19.339   0.684   0.878
12764W        W54775  12.769   9.794   9.602
12765W        W54776  23.389  17.514   2.458
12766W        W54777  23.649  21.154  11.142
12767W        W54778  24.519   2.514  11.082
12768W        W54779   1.739   1.014   1.558
12769W        W54780   1.629  22.161   9.582
12770W        W54781  21.119   8.814   7.602
12771W        W54782  22.899  17.944   9.862
12772W        W54783   8.949  18.704   0.628
12773W        W54784   0.649  15.324   0.948
12774W        W54785   6.449  13.874   8.592
12775W        W54786  16.539  11.524  10.102
12776W        W54787  20.339  17.254   0.108
12777W        W54788  17.019  17.724   0.748
12778W        W54789   7.399  17.374   3.502
12779W        W54790  20.989  18.854   3.172
12780W        W54791  19.739  11.974   3.192
12781W        W54792   7.809   9.664   2.018
12782W        W54793  16.259   9.154   1.228
12783W        W54794   2.249  13.614   0.248
12784W        W54795   2.109   3.534  10.222
12785W        W54796  23.859   1.814  11.172
12786W        W54797  23.389  10.474   3.172
12787W        W54798  24.699  12.564   8.422
12788W        W54799  13.059   3.524   3.502
12789W        W54800  17.689   4.124   2.048
12790W        W54801  11.219  22.601   0.338
12791W        W54802  11.959  22.281   3.062
12792W        W54803   0.299   8.254  10.122
12793W        W54804  14.339  20.514   8.482
12794W        W54805  15.719   4.444   1.658
12795W        W54806   4.079  24.131   8.402
12796W        W54807   6.399   2.504  10.122
12797W        W54808  16.319  11.894  15.832
12798W        W54809   0.059  18.984  10.932
12799W        W54810   6.519  19.954   9.862
12800W        W54811  24.809   6.854   8.232
12801W        W54812  22.789   4.644   1.348
12802W        W54813  15.629  23.261   2.742
12803W        W54814   5.979  13.334  15.252
12804W        W54815   9.189  17.024  10.542
12805W        W54816   3.899   8.164   7.472
12806W        W54817  13.619  18.214  11.292
12807W        W54818  13.499  18.674   3.072
12808W        W54819  24.769  20.694   2.298
12809W        W54820   6.889   9.454   2.722
12810W        W54821   1.289  17.614   9.402
12811W        W54822   4.179  18.244  10.132
12812W        W54823  24.149   9.164   7.872
12813W        W54824   4.919  19.204   0.428
12814W        W54825  15.869  13.704   9.262
12815W        W54826   9.309  22.561  10.012
12816W        W54827   5.949  20.934  11.312
12817W        W54828  12.579  23.051   4.422
12818W        W54829   4.009   4.364  15.442
12819W        W54830  24.269  19.704   1.498
12820W        W54831  12.529  21.921   0.958
12821W        W54832  14.949   6.734  10.872
12822W        W54833  23.179  23.541   4.162
12823W        W54834   9.359  10.434   2.458
12824W        W54835   9.429   4.124  14.942
12825W        W54836   1.559  17.664   8.722
12826W        W54837   3.339  18.934  11.062
12827W        W54838   4.359   5.624   3.482
12828W        W54839  19.779  17.914   3.132
12829W        W54840  24.749  11.584   3.432
12830W        W54841  19.109  10.454   0.468
12831W        W54842  16.659   8.804   8.592
12832W        W54843   7.849   7.124   3.292
12833W        W54844  16.039   2.644   9.632
12834W        W54845   8.129  13.404  10.372
12835W        W54846   5.629  12.024   2.238
12836W        W54847  20.979   3.224  12.312
12837W        W54848  17.999   7.624   0.368
12838W        W54849  18.829   4.054  15.252
12839W        W54850   2.219   0.434   0.218
12840W        W54851   2.079  21.571   7.682
12841W        W54852   6.479   3.764   3.272
12842W        W54853  25.489   6.054  10.712
12843W        W54854   8.449  16.604   3.192
12844W        W54855  18.749  21.194   0.638
12845W        W54856  21.969  19.134  10.812
12846W        W54857  10.809  16.404   9.032
12847W        W54858   8.719  22.091   8.792
12848W        W54859   3.809  16.684   0.608
12849W        W54860  19.309   2.834   3.842
12850W        W54861  18.899  22.981   0.618
12851W        W54862   1.709  15.934   9.152
12852W        W54863   4.219  12.964  10.292
12853W        W54864   5.309  12.494   3.862
12854W        W54865  13.649  19.544   3.892
12855W        W54866  24.399  24.381  11.242
12856W        W54867   5.839   4.894  14.792
12857W        W54868  16.369  21.461   2.388
12858W        W54869  16.029   0.754   0.548
12859W        W54870   8.279  23.721   1.238
12860W        W54871   6.599  21.501   8.642
12861W        W54872  21.889  19.704   9.722
12862W        W54873   5.609   7.624   0.198
12863W        W54874  14.669  23.141   1.938
12864W        W54875   3.009  17.604   8.102
12865W        W54876  20.599  13.194   2.278
12866W        W54877  19.629  22.501  11.252
12867W        W54878   2.579  12.854  10.412
12868W        W54879  14.959  12.034  15.512
12869W        W54880  14.679   0.354   9.162
12870W        W54881  24.749  11.314   3.032
12871W        W54882  18.009  24.691   2.228
12872W        W54883  16.009   0.104   8.042
12873W        W54884  22.189   0.744   1.408
12874W        W54885   8.099   8.134   0.878
12875W        W54886  15.579   6.524   0.608
12876W        W54887   9.529   7.874  15.162
12877W        W54888  16.569   6.774   4.272
12878W        W54889  12.219   4.164   3.692
12879W        W54890  14.309   5.704   9.692
12880W        W54891   8.479   5.734   8.982
12881W        W54892   4.519  23.891  10.992
12882W        W54893  23.729   7.194   3.042
12883W        W54894  21.189  15.154  10.712
12884W        W54895   8.929   9.574  10.222
12885W        W54896  17.089  24.141   0.518
12886W        W54897  12.399  22.341   8.182
12887W        W54898  11.639   1.964  10.082
12888W        W54899   3.009   6.864   0.268
12889W        W54900  12.389   6.934  15.552
12890W        W54901  17.769  21.541   2.238
12891W        W54902  14.869  24.731   2.248
12892W        W54903   4.379   9.294  10.992
12893W        W54904   0.309   4.854   2.922
12894W        W54905   5.509  18.004   1.188
12895W        W54906  16.769  17.784   2.922
12896W        W54907   8.169   8.974  10.502
12897W        W54908  22.969   1.894   7.972
12898W        W54909   0.089   1.874  10.222
12899W        W54910   0.749  13.404   0.738
12900W        W54911  12.879  23.871   2.008
12901W        W54912  10.159   6.614  15.502
12902W        W54913  15.129  23.061   2.862
12903W        W54914   4.909   7.764  15.812
12904W        W54915   9.039  15.304   2.782
12905W        W54916  15.839  19.174  15.852
12906W        W54917  17.839  24.431  15.752
12907W        W54918  20.699  19.384   1.118
12908W        W54919  14.659   3.254  10.132
12909W        W54920   8.789  14.394   3.222
12910W        W54921  13.859  22.511   9.862
12911W        W54922  11.689   9.294   3.322
12912W        W54923   6.079   7.774   9.452
12913W        W54924  16.469   4.214   8.542
12914W        W54925  11.069   0.624   9.232
12915W        W54926  14.519  19.034   1.528
12916W        W54927   9.229  18.384   1.778
12917W        W54928  23.589  20.204  10.542
12918W        W54929  15.679  19.984   9.402
12919W        W54930  12.329  16.874   3.772
12920W        W54931  11.809  17.294   1.628
12921W        W54932   9.079  14.564  14.982
12922W        W54933  24.479   5.164   7.412
12923W        W54934  15.839   5.584  11.202
12924W        W54935   2.289  19.374   3.102
12925W        W54936  13.859  20.354   9.332
12926W        W54937  15.859  14.604   9.612
12927W        W54938   6.989  18.014  10.142
12928W        W54939   1.579  17.044   0.788
12929W        W54940  17.649   6.114   9.472
12930W        W54941  22.089  11.884  10.202
12931W        W54942   8.019  13.044   3.532
12932W        W54943   0.199  20.764   2.328
12933W        W54944   4.519  15.734   3.042
12934W        W54945   1.929   9.244   2.692
12935W        W54946  17.199  17.234   8.922
12936W        W54947  23.569  24.611  10.982
12937W        W54948   2.099  25.461   1.168
12938W        W54949  22.809  10.594   1.758
12939W        W54950  16.179  23.091   9.312
12940W        W54951  13.189   4.174  15.042
12941W        W54952   8.309  14.404   0.448
12942W        W54953   9.069  11.394  15.562
12943W        W54954   3.939  21.931   9.232
12944W        W54955  22.739  10.364  11.812
12945W        W54956   0.799  17.194   1.568
12946W        W54957   0.369   2.864   0.958
12947W        W54958  13.749   7.684   3.142
12948W        W54959  22.969   4.314   2.802
12949W        W54960  13.509  11.774  15.072
12950W        W54961  22.159   2.824   7.252
12951W        W54962  20.489  24.381  11.952
12952W        W54963  18.659  24.661   9.472
12953W        W54964   9.279   0.684   2.802
12954W        W54965   7.249  14.124   1.718
12955W        W54966  19.039   5.244  11.302
12956W        W54967   9.199  17.974   9.032
12957W        W54968   0.859  11.494   1.968
12958W        W54969   4.589   3.464   1.498
12959W        W54970   1.009   1.724  11.212
12960W        W54971  20.519  16.824  10.862
12961W        W54972  11.629  16.504   1.128
12962W        W54973  17.039   1.474   3.282
12963W        W54974  20.399  24.831   8.122
12964W        W54975  21.579  22.251   0.498
12965W        W54976   9.019  20.974   9.882
12966W        W54977  18.859   4.684  10.142
12967W        W54978  24.509   7.374   2.128
12968W        W54979  17.299   8.584   1.408
12969W        W54980   0.489  25.181   3.012
12970W        W54981   2.989  25.121   1.558
12971W        W54982   6.639   2.754  15.552
12972W        W54983  22.139  10.404   2.418
12973W        W54984  21.349  14.934   2.532
12974W        W54985   5.319  25.091   4.232
12975W        W54986   1.589   4.804  10.202
12976W        W54987  10.409   0.254   0.408
12977W        W54988  12.299  18.834   8.162
12978W        W54989  15.229   7.224   8.332
12979W        W54990  14.399  15.644   3.572
12980W        W54991  24.819   5.554   8.252
12981W        W54992  13.349  23.271   8.612
12982W        W54993   3.959   4.344   1.838
12983W        W54994   9.899  15.444   0.318
12984W        W54995   7.359   9.094  10.342
12985W        W54996  16.099  18.574   2.358
12986W        W54997  10.869   4.094  15.352
12987W        W54998   2.639   4.634   1.728
12988W        W54999  24.479   9.304  10.232
12989W        W55000  20.789   4.274   7.282
12990W        W55001   4.289  23.861   8.832
12991W        W55002  19.519   9.054   2.408
12992W        W55003   6.689   0.184   0.408
12993W        W55004  13.449  14.324   0.318
12994W        W55005  10.719   1.784   3.512
12995W        W55006  23.619  17.894   9.072
12996W        W55007  10.069   8.954   1.408
12997W        W55008  13.459  19.764  15.752
12998W        W55009  25.139   5.114   2.058
12999W        W55010   7.399  11.044   8.942
13000W        W55011  15.819  12.344   0.018
13001W        W55012   2.499   6.254   7.882
13002W        W55013   6.989   1.984   0.178
13003W        W55014   1.659   2.094   0.218
13004W        W55015  16.299   0.564  10.672
13005W        W55016  22.549   4.474  15.782
13006W        W55017  23.039  25.371   2.298
13007W        W55018   8.919  24.281   1.598
13008W        W55019  18.419  18.154  11.492
13009W        W55020  10.529  11.934   0.208
13010W        W55021  25.079  19.734   3.442
13011W        W55022   6.659  21.751   1.898
13012W        W55023  21.879   7.604   1.008
13013W        W55024  13.939  16.964   3.202
13014W        W55025  13.659  17.274   1.458
13015W        W55026   9.909  25.331  15.582
13016W        W55027   2.939  13.234   7.302
13017W        W55028   1.119  23.401   9.232
13018W        W55029  21.529  13.994   8.262
13019W        W55030  19.779  17.124  10.202
13020W        W55031  10.449  12.784   4.182
13021W        W55032  11.549  22.801   8.982
13022W        W55033   0.829   3.194   1.068
13023W        W55034  23.829  17.924   9.662
13024W        W55035   9.569  24.801   1.518
13025W        W55036  10.309  20.424   4.242
13026W        W55037  19.019   3.634  10.132
13027W        W55038  16.749   5.004   3.702
13028W        W55039   5.959   5.044   3.192
13029W        W55040   2.009   1.704  15.832
13030W        W55041  16.619  24.161   2.448
13031W        W55042  14.659  21.521  10.072
13032W        W55043  25.529  16.244   8.632
13033W        W55044   0.829   9.014   1.248
13034W        W55045   5.329   8.114  11.842
13035W        W55046  13.199  21.371   2.278
13036W        W55047  19.099  18.084   1.548
13037W        W55048  14.609   7.304  15.142
13038W        W55049   5.659  14.804  10.282
13039W        W55050   4.369  13.544   1.978
13040W        W55051  21.809   9.344   2.438
13041W        W55052  13.639  14.084   4.322
13042W        W55053  13.829   6.504  10.302
13043W        W55054   0.379  11.814   2.098
13044W        W55055   4.239  24.551   0.718
13045W        W55056   2.719   5.264   1.118
13046W        W55057  11.069   4.094   1.978
13047W        W55058   0.129   0.194   3.522
13048W        W55059  22.239  16.014   2.752
13049W        W55060  25.379  18.224   8.872
13050W        W55061   5.039  24.321   0.378
13051W        W55062  20.839   9.004   8.792
13052W        W55063   7.719  18.384   9.022
13053W        W55064  19.669  25.551   1.778
13054W        W55065  22.189  20.914   7.382
13055W        W55066  14.349  20.784  10.812
13056W        W55067  23.729  15.144  10.582
13057W        W55068   5.529   6.934   9.462
13058W        W55069  10.569  19.244   0.408
13059W        W55070   9.089  13.584   1.738
13060W        W55071   4.429   9.764   3.022
13061W        W55072  14.979  24.711   4.672
13062W        W55073  21.129  17.444   1.328
13063W        W55074  25.449  19.964  15.642
13064W        W55075  12.279   2.474   0.598
13065W        W55076  24.549   5.924   2.348
13066W        W55077   4.079   9.984   9.282
13067W        W55078   6.889  20.594   8.282
13068W        W55079  21.389  20.784   1.568
13069W        W55080   3.329  24.001   0.578
13070W        W55081  14.469   2.074   8.902
13071W        W55082  20.759  11.674  11.432
13072W        W55083  10.249  21.234   3.262
13073W        W55084   0.919  16.684   0.028
13074W        W55085  21.609  16.214   3.672
13075W        W55086   5.619   9.274  15.512
13076W        W55087  23.439  17.084   0.238
13077W        W55088  11.869   6.654   8.702
13078W        W55089  25.039  24.401   3.292
13079W        W55090  17.879  25.111   9.912
13080W        W55091  20.369   2.844   8.892
13081W        W55092  24.039   6.884   7.822
13082W        W55093   1.629   0.294   0.408
13083W        W55094  23.149   4.934   7.592
13084W        W55095  20.709  20.794   2.338
13085W        W55096  22.599  22.361   7.092
13086W        W55097  16.459  13.454   1.058
13087W        W55098   8.519   8.124   2.328
13088W        W55099   0.979   1.154   7.292
13089W        W55100   8.939  12.934   8.082
13090W        W55101  23.709  10.854   3.252
13091W        W55102   5.839  18.754   1.768
13092W        W55103  22.979  19.784   3.522
13093W        W55104   9.599   0.234  10.992
13094W        W55105  12.999  22.001   0.638
13095W        W55106  25.069   1.894   3.882
13096W        W55107  11.339  18.894   9.422
13097W        W55108   0.679   4.314   9.112
13098W        W55109  15.099   6.614   0.328
13099W        W55110  20.959   6.064  10.662
13100W        W55111  10.789  18.354  10.642
13101W        W55112  24.339  14.184   2.258
13102W        W55113   2.129  23.391   9.452
13103W        W55114  11.519  15.644   3.892
13104W        W55115  11.399  14.124   4.772
13105W        W55116   4.139   8.794  10.952
13106W        W55117   5.049   2.944  11.292
13107W        W55118  10.369   4.904   8.622
13108W        W55119  20.819  11.544   0.428
13109W        W55120  17.749  12.884   4.232
13110W        W55121   9.589   3.834  10.762
13111W        W55122  19.819   0.324   7.992
13112W        W55123  12.119   8.594   2.228
13113W        W55124  20.319   2.064   1.078
13114W        W55125  19.769  25.121  11.042
13115W        W55126  16.349  15.644   1.568
13116W        W55127   3.799   5.904  10.692
13117W        W55128  17.749  21.431   7.922
13118W        W55129   8.799  18.314   8.832
13119W        W55130   9.449  16.344   0.218
13120W        W55131  17.449  17.214   0.288
13121W        W55132  16.459  14.864   0.608
13122W        W55133  16.409   3.384   3.412
13123W        W55134   1.769   0.534   9.012
13124W        W55135   2.589   8.804   7.562
13125W        W55136  19.089  15.604   1.138
13126W        W55137  23.009  13.454  10.652
13127W        W55138  23.259  23.991   1.728
13128W        W55139   3.189   1.794   9.422
13129W        W55140   4.009   8.184  10.952
13130W        W55141  10.739   9.704   0.418
13131W        W55142   6.389  23.621   2.602
13132W        W55143  16.649  15.374   2.512
13133W        W55144  25.169   3.834   7.272
13134W        W55145   1.609   0.634   1.968
13135W        W55146   3.809   6.824  10.722
13136W        W55147   6.819  11.204   2.512
13137W        W55148  12.449  21.094   8.692
13138W        W55149   8.419   8.784   3.452
13139W        W55150   2.799   3.874   2.852
13140W        W55151   9.749  16.564   9.702
13141W        W55152  18.729  21.134  10.162
13142W        W55153  13.369  10.784  15.022
13143W        W55154   4.159  24.641   0.138
13144W        W55155  16.919   8.984  15.592
13145W        W55156  16.399   2.174   9.802
13146W        W55157   8.319  18.764   3.572
13147W        W55158  25.009   7.204   2.408
13148W        W55159  10.029   2.534   9.642
13149W        W55160  11.579   3.164   0.968
13150W        W55161   2.279   0.524   9.112
13151W        W55162   6.319   7.534   8.122
13152W        W55163  14.609  18.774   2.338
13153W        W55164  12.449  22.541   9.902
13154W        W55165  17.629  11.964   3.272
13155W        W55166  12.059   2.154   3.242
13156W        W55167   4.109  10.834   3.202
13157W        W55168  14.159  19.474   4.172
13158W        W55169   9.349   6.104  15.492
13159W        W55170   5.759  23.611   0.318
13160W        W55171  19.249  14.204   1.058
13161W        W55172  22.419  19.394  10.332
13162W        W55173  13.419   8.884   3.352
13163W        W55174   3.949   7.924   8.132
13164W        W55175  12.679  18.974  10.702
13165W        W55176   9.489   0.594   1.438
13166W        W55177  24.939  14.064   9.172
13167W        W55178  15.189   5.904   8.182
13168W        W55179   5.589   6.584   2.298
13169W        W55180  24.419   3.424  10.842
13170W        W55181   0.219  11.064   1.438
13171W        W55182  10.649   2.214   1.158
13172W        W55183  19.489  24.091   3.892
13173W        W55184  25.449   8.214  10.242
13174W        W55185  20.329   2.384  10.832
13175W        W55186   1.589  11.964   0.198
13176W        W55187  13.519   3.964   3.872
13177W        W55188  15.509  22.351  10.262
13178W        W55189   4.679   4.464   8.102
13179W        W55190   7.889  15.064  10.082
13180W        W55191  10.749   0.804   1.018
13181W        W55192   7.929   2.664  10.412
13182W        W55193   5.469  20.714   1.278
13183W        W55194  13.989   3.684  10.452
13184W        W55195   0.979   1.214   2.542
13185W        W55196   4.379  19.094  10.832
13186W        W55197  10.589   4.334   2.772
13187W        W55198  12.439  21.631  10.472
13188W        W55199   3.719   2.434  11.012
13189W        W55200  17.999  10.984  15.292
13190W        W55201   5.939  10.164   3.042
13191W        W55202  13.509  12.444  14.072
13192W        W55203  18.499   9.754   1.348
13193W        W55204   4.259  16.304   9.462
13194W        W55205   9.019  21.511   3.502
13195W        W55206  23.379  11.844   2.348
13196W        W55207   2.139  20.044  10.082
13197W        W55208  16.029   6.524   9.842
13198W        W55209  16.629  16.694  10.712
13199W        W55210   4.099   7.964  15.572
13200W        W55211   8.939  10.934  15.362
13201W        W55212  23.229   9.204  10.602
13202W        W55213   8.829  23.521   3.462
13203W        W55214   6.319  23.111  15.722
13204W        W55215   5.099  22.261  10.072
13205W        W55216   1.179   2.464   8.182
13206W        W55217   0.389   2.674   2.308
13207W        W55218   7.329   6.954   0.998
13208W        W55219  18.729  21.691   0.868
13209W        W55220   1.339   1.514   0.898
13210W        W55221  25.049   9.694   2.762
13211W        W55222   8.779  16.124   4.532
13212W        W55223  21.259  23.921   2.682
13213W        W55224  16.459   8.744  10.392
13214W        W55225   6.929  25.041  12.042
13215W        W55226   6.429  19.984   3.042
13216W        W55227  13.129  12.204   3.682
13217W        W55228  10.399   1.184   1.698
13218W        W55229   4.609  24.371  15.772
13219W        W55230  21.969   8.624   1.218
13220W        W55231  16.649   4.684   2.782
13221W        W55232  11.029   0.804   3.042
13222W        W55233  14.989   3.864   2.522
13223W        W55234   3.529   9.344  10.662
13224W        W55235   2.339   9.104   0.688
13225W        W55236   4.529  22.351   9.812
13226W        W55237  10.919   7.664   9.112
13227W        W55238   0.919  10.074   1.268
13228W        W55239  11.089  19.444  10.272
13229W        W55240   4.649  23.311   1.068
13230W        W55241  21.479   8.074  10.242
13231W        W55242  13.329  17.554  15.582
13232W        W55243  20.699   0.624   8.912
13233W        W55244   2.289   5.074   8.612
13234W        W55245   4.909  25.201  10.272
13235W        W55246  12.509   3.744   1.818
13236W        W55247  14.009  12.144   3.152
13237W        W55248  23.149  16.354  10.302
13238W        W55249   5.849   0.314   4.472
13239W        W55250  14.529  14.444   2.942
13240W        W55251  23.659   4.814   2.008
13241W        W55252  13.079  14.054   1.518
13242W        W55253   4.789  20.204   3.522
13243W        W55254  15.659  19.344   1.258
13244W        W55255   2.629   9.194   9.762
13245W        W55256   5.719  12.924  15.132
13246W        W55257  12.619  18.304   9.852
13247W        W55258  10.629  20.034   4.362
13248W        W55259   5.299   1.484   9.072
13249W        W55260   1.689  22.761  10.222
13250W        W55261   5.029  20.044  10.042
13251W        W55262  20.039   5.754   9.212
13252W        W55263  23.189   0.144   3.292
13253W        W55264   1.609  15.684   0.848
13254W        W55265  19.079   4.594   0.018
13255W        W55266  23.329  23.551   1.438
13256W        W55267  18.779   5.404   0.918
13257W        W55268   3.669  22.121   9.692
13258W        W55269   0.599  23.621   9.252
13259W        W55270   8.549  10.374  10.122
13260W        W55271  15.399  20.154   2.872
13261W        W55272  15.639  12.164   1.498
13262W        W55273   1.709   6.834   2.952
13263W        W55274  19.729  25.371   9.002
13264W        W55275  16.719   5.374   4.202
13265W        W55276   4.089  11.044   7.012
13266W        W55277   7.459  23.291   1.718
13267W        W55278   7.189  11.674   1.888
13268W        W55279   5.189  19.014   8.312
13269W        W55280  22.899   3.994   0.588
13270W        W55281   0.679  18.664   0.958
13271W        W55282   5.609   3.474   1.878
13272W        W55283  22.339   1.074  12.592
13273W        W55284   0.319  17.844   7.472
13274W        W55285  10.019  20.704  11.192
13275W        W55286  19.799   1.434  10.102
13276W        W55287  17.359  15.724   0.438
13277W        W55288   8.859   2.394   9.362
13278W        W55289  16.559  18.314   2.378
13279W        W55290  21.279  18.514   2.662
13280W        W55291  21.509   2.704  10.412
13281W        W55292  10.039  17.134   4.142
13282W        W55293   5.939   5.074   1.648
13283W        W55294   3.159   7.544  11.672
13284W        W55295  15.439  25.271  10.822
13285W        W55296   5.679  17.664   2.188
13286W        W55297  19.809   4.854   9.782
13287W        W55298  23.779  12.454   1.208
13288W        W55299   8.649  16.254   3.682
13289W        W55300  16.709  12.094   1.238
13290W        W55301   6.149  14.894   9.842
13291W        W55302   0.509   8.564   9.752
13292W        W55303  17.929  23.601   3.342
13293W        W55304  24.349  12.114  11.792
13294W        W55305  23.249  11.064   7.202
13295W        W55306  15.429  22.021   3.392
13296W        W55307  16.949  16.904  11.092
13297W        W55308   5.859  16.884   9.522
13298W        W55309   4.099   7.114   7.322
13299W        W55310  21.769   2.814  10.022
13300W        W55311  14.989  15.854   9.582
13301W        W55312  14.209  11.824   2.562
13302W        W55313  13.599   9.724   2.862
13303W        W55314   3.809  13.964   2.512
13304W        W55315  23.179  21.194   8.622
13305W        W55316  25.019   9.284   8.122
13306W        W55317  16.129  16.454   1.398
13307W        W55318   0.059  10.114  10.392
13308W        W55319   0.349  15.854   0.208
13309W        W55320  10.519  10.294   3.162
13310W        W55321  14.779  17.854   2.208
13311W        W55322  21.409  10.174  15.852
13312W        W55323  13.309  11.494   3.182
13313W        W55324  22.649  21.421  12.092
13314W        W55325  12.519  19.634   4.412
13315W        W55326  20.319  12.254   0.238
13316W        W55327   7.149  11.534   0.078
13317W        W55328  15.369  24.251   9.262
13318W        W55329   8.939   1.684   3.912
13319W        W55330   9.139  20.864   1.988
13320W        W55331  14.559  11.704   5.342
13321W        W55332  20.319  10.564   2.772
13322W        W55333  16.899  14.354  14.692
13323W        W55334  16.509  19.684   8.092
13324W        W55335   8.479  23.821   8.162
13325W        W55336   0.041   1.094   1.358
13326W        W55337  22.719  16.114  11.302
13327W        W55338  21.859   7.204   1.388
13328W        W55339  19.279  19.394   7.522
13329W        W55340  10.229  11.334   2.722
13330W        W55341  24.919  21.184   2.288
13331W        W55342  13.999  21.841   0.758
13332W        W55343  22.969  24.171   7.512
13333W        W55344  22.829   3.124   2.682
13334W        W55345  14.959   6.694   9.512
13335W        W55346   0.449   7.674   8.122
13336W        W55347  16.829  23.711   2.572
13337W        W55348  15.939   0.154   8.862
13338W        W55349  16.199   2.914   7.672
13339W        W55350   3.309  25.141   8.512
13340W        W55351   4.409  21.304   3.312
13341W        W55352  16.259  22.101  11.792
13342W        W55353  12.939  20.304   9.152
13343W        W55354   5.119   8.504   1.458
13344W        W55355   6.469  20.224   0.908
13345W        W55356  10.909  23.641   8.042
13346W        W55357  11.219  24.471   4.032
13347W        W55358   4.549   7.854  11.322
13348W        W55359  22.359  19.844   2.118
13349W        W55360  11.989   7.124   0.488
13350W        W55361  24.339  10.184   8.342
13351W        W55362   2.009   2.574   3.272
13352W        W55363  14.639   6.914   2.542
13353W        W55364   3.389   8.874   9.222
13354W        W55365   5.009  14.764   0.638
13355W        W55366  20.529   1.544   8.772
13356W        W55367  10.879  11.034   3.952
13357W        W55368  24.839   0.924   2.048
13358W        W55369  22.799  22.411  11.032
13359W        W55370   7.509  20.274  10.402
13360W        W55371  14.709  11.344  15.202
13361W        W55372   9.779  19.544   1.498
13362W        W55373   8.629   0.704   3.802
13363W        W55374  23.089  24.011  10.332
13364W        W55375   4.499  18.984   2.932
13365W        W55376  24.989   1.294   9.062
13366W        W55377   2.319   2.194   3.422
13367W        W55378  11.459  12.174   1.708
13368W        W55379  11.359  19.004   1.748
13369W        W55380  17.059  13.034   0.888
13370W        W55381  23.589  22.201   1.388
13371W        W55382  12.189   5.354  14.992
13372W        W55383  10.669  15.844   3.762
13373W        W55384   7.589   1.604  14.862
13374W        W55385  20.959   6.164   9.062
13375W        W55386  18.759  18.354  11.102
13376W        W55387  20.989  24.001   8.832
13377W        W55388  24.799   8.404   1.648
13378W        W55389  24.629  23.491   1.298
13379W        W55390  20.609  23.291   9.442
13380W        W55391  17.999  13.604   9.112
13381W        W55392  16.889   9.904   0.018
13382W        W55393   7.199  23.231  15.222
13383W        W55394  14.289  12.554  14.342
13384W        W55395  20.809  25.001   7.952
13385W        W55396  10.309   2.564  10.022
13386W        W55397   3.399  23.211   4.092
13387W        W55398   1.189  11.174  10.312
13388W        W55399  15.619  22.111   8.322
13389W        W55400  20.499   2.474   1.898
13390W        W55401   7.249  10.014   9.082
13391W        W55402  24.489  19.984  10.782
13392W        W55403  16.629  13.974  10.842
13393W        W55404   0.359   0.454   8.612
13394W        W55405  14.579   4.284   1.358
13395W        W55406  23.969   8.134   9.822
13396W        W55407  18.869  17.614   3.112
13397W        W55408  15.169  20.544   1.438
13398W        W55409  13.979  14.404   0.138
13399W        W55410  18.429  13.924   2.428
13400W        W55411  18.339  19.984   0.858
13401W        W55412  19.929   4.524   9.412
13402W        W55413  11.889  13.174   5.182
13403W        W55414  17.619   3.924  14.622
13404W        W55415   9.119   2.464   0.698
13405W        W55416   6.199  11.484   0.898
13406W        W55417  18.339   8.944   8.582
13407W        W55418   3.749  24.051   0.998
13408W        W55419  19.559  19.054   2.488
13409W        W55420   3.299  25.561   7.792
13410W        W55421  15.679   1.494   0.748
13411W        W55422  22.069   5.564  15.722
13412W        W55423   1.999  19.404   4.222
13413W        W55424   0.249  16.614   8.572
13414W        W55425  17.779   9.664   1.898
13415W        W55426  12.819   8.354   4.072
13416W        W55427  15.619   3.814   8.882
13417W        W55428   1.949   0.504   3.042
13418W        W55429  17.889  23.321   9.422
13419W        W55430   5.039  16.134  10.632
13420W        W55431   9.369  10.004   1.168
13421W        W55432   8.739  12.294  15.232
13422W        W55433  10.099   3.714  15.712
13423W        W55434  11.099  20.744   4.692
13424W        W55435   9.619   6.014   8.462
13425W        W55436   4.359   8.384  10.642
13426W        W55437  14.499   5.484   2.088
13427W        W55438  24.989  25.081   9.102
13428W        W55439   2.209   7.124   6.532
13429W        W55440  11.009   8.204  10.382
13430W        W55441   2.229   2.124   1.408
13431W        W55442  23.519   1.424   9.972
13432W        W55443  19.409   4.174  10.862
13433W        W55444   7.559  23.301   2.198
13434W        W55445   2.129   5.934   2.318
13435W        W55446  22.769  21.024   3.782
13436W        W55447   7.549  20.664   9.432
13437W        W55448  20.749   6.244   7.772
13438W        W55449  18.509   5.554   0.528
13439W        W55450   3.019  19.234   0.188
13440W        W55451  21.629  20.494  11.522
13441W        W55452  20.009  19.644   9.642
13442W        W55453  10.999  12.914   1.478
13443W        W55454   8.069  15.884   0.578
13444W        W55455  11.409   1.994   1.908
13445W        W55456  22.219  24.421  12.052
13446W        W55457   5.389  20.464  15.842
13447W        W55458  23.479  18.694   1.908
13448W        W55459  24.279  21.354   2.852
13449W        W55460  23.119   2.184   0.568
13450W        W55461  19.779  14.784   9.492
13451W        W55462  11.029  10.944  15.712
13452W        W55463  11.529  19.184   0.578
13453W        W55464   7.909  16.364   4.232
13454W        W55465  15.509  20.794  10.792
13455W        W55466   0.129  19.864  10.072
13456W        W55467  12.409  11.904   0.798
13457W        W55468   8.179   8.494  10.262
13458W        W55469  23.199   6.784   1.318
13459W        W55470   2.519   3.574   8.032
13460W        W55471   7.419  22.071   9.622
13461W        W55472  10.919  17.174   4.352
13462W        W55473  18.239   4.104  15.422
13463W        W55474   6.189  14.594  15.442
13464W        W55475   5.319  24.801   8.352
13465W        W55476   2.649  12.424   2.852
13466W        W55477   3.399  20.324  11.152
13467W        W55478   3.799  12.934   8.622
13468W        W55479   7.089   4.234  15.632
13469W        W55480  24.729  12.014   0.568
13470W        W55481  14.259  13.344   9.272
13471W        W55482   6.419   6.244   2.982
13472W        W55483  12.129  22.441   9.522
13473W        W55484   2.439  10.964   7.492
13474W        W55485   8.249  10.444   2.118
13475W        W55486   2.959   0.414   9.062
13476W        W55487   4.619   9.334   9.862
13477W        W55488  24.289  14.044  12.062
13478W        W55489   8.409  12.234  15.702
13479W        W55490  19.189  13.774   8.282
13480W        W55491   4.399  20.494   4.012
13481W        W55492   7.089   9.024   1.608
13482W        W55493  11.699   2.104   2.512
13483W        W55494   5.429  19.104   2.248
13484W        W55495   7.089  15.224   1.708
13485W        W55496   3.219   2.794   1.388
13486W        W55497  10.259  18.974   3.172
13487W        W55498  20.529   7.704  10.762
13488W        W55499   9.749  24.831  10.152
13489W        W55500   8.499   4.654   0.278
13490W        W55501  11.429  14.134  14.962
13491W        W55502   0.209  18.744   7.832
13492W        W55503  14.269   5.934   9.252
13493W        W55504   1.929   9.854   1.218
13494W        W55505  16.009   9.524  15.512
13495W        W55506   8.629  19.434   9.872
13496W        W55507   3.819  13.794   7.922
13497W        W55508  22.629  11.584   9.562
13498W        W55509  15.419  24.921  12.022
13499W        W55510  16.669   8.944   0.898
13500W        W55511  17.229  22.791   8.832
13501W        W55512   9.289  17.984   3.172
13502W        W55513   2.119  20.084  11.132
13503W        W55514  18.229   4.194   9.622
13504W        W55515   6.919  15.484  11.172
13505W        W55516   1.079  14.284   2.078
13506W        W55517   6.469  21.581   0.888
13507W        W55518   8.389   8.934   2.168
13508W        W55519  10.879  20.844  15.482
13509W        W55520   8.659   9.204   9.912
13510W        W55521  14.179   6.164   9.932
13511W        W55522   8.609  11.334  15.352
13512W        W55523   6.989   2.274   1.348
13513W        W55524   4.799   4.534   2.882
13514W        W55525  21.579  22.401  11.482
13515W        W55526   5.389   6.154   2.168
13516W        W55527  18.669  18.054  10.192
13517W        W55528   0.829  20.124   3.172
13518W        W55529   7.669   5.554   9.502
13519W        W55530   5.519   3.194   7.992
13520W        W55531  16.199  18.294  10.122
13521W        W55532  20.589   6.024   7.162
13522W        W55533   8.859  16.194   0.768
13523W        W55534   2.649   3.954   8.342
13524W        W55535   3.319  21.531  11.212
13525W        W55536  17.759   2.714   0.558
13526W        W55537  12.319  14.454   2.338
13527W        W55538   0.549  20.244   3.662
13528W        W55539   7.499  12.864   9.462
13529W        W55540   4.289  25.081   3.472
13530W        W55541  18.959   8.984   1.638
13531W        W55542  11.209   6.274   9.492
13532W        W55543  25.509   5.624   0.308
13533W        W55544  24.409  15.054   1.148
13534W        W55545   1.949   1.084  11.342
13535W        W55546  16.429  10.934   1.048
13536W        W55547  18.519  21.791  10.982
13537W        W55548   2.989  22.041   2.418
13538W        W55549  13.609  20.314  10.232
13539W        W55550   4.519   2.034   1.478
13540W        W55551   4.079  19.444   1.588
13541W        W55552   1.509   0.554   2.892
13542W        W55553   8.689  14.934  10.632
13543W        W55554   7.679   9.774   9.532
13544W        W55555  13.249   0.684   1.738
13545W        W55556  20.739   3.004   2.992
13546W        W55557  18.579  13.144  15.102
13547W        W55558   8.719   8.634   9.532
13548W        W55559   0.379   5.254   7.812
13549W        W55560   5.359   8.874   1.758
13550W        W55561  12.729   4.844   7.712
13551W        W55562  10.549   9.804  14.292
13552W        W55563  11.169   1.394   2.278
13553W        W55564   2.799  17.404  14.962
13554W        W55565  22.779  24.641   9.792
13555W        W55566  13.889  15.754   4.992
13556W        W55567  18.679  16.014  15.492
13557W        W55568   1.199   5.454  10.372
13558W        W55569  19.289   3.784   9.762
13559W        W55570  16.579  13.104  11.072
13560W        W55571  10.909  10.144   1.358
13561W        W55572  15.949  21.721  10.512
13562W        W55573  12.559  23.011   2.532
13563W        W55574  22.729   0.104  11.992
13564W        W55575  13.969  22.851   1.538
13565W        W55576   8.199   7.024   3.682
13566W        W55577  14.749   3.334  15.332
13567W        W55578  23.759  19.554  10.652
13568W        W55579  24.059  21.044   9.842
13569W        W55580  20.649   0.674  15.712
13570W        W55581   3.379   3.274   2.542
13571W        W55582  20.709  10.344   8.102
13572W        W55583   4.019  24.711   2.178
13573W        W55584  22.019  15.964  12.382
13574W        W55585  13.769   1.834   0.408
13575W        W55586   8.979  17.104   1.768
13576W        W55587   0.839  25.071   0.218
13577W        W55588  10.429   9.644  14.792
13578W        W55589  23.919  25.411   2.642
13579W        W55590  19.279  15.074  11.912
13580W        W55591  18.559   4.934  15.282
13581W        W55592  11.539  23.601   3.202
13582W        W55593  18.679  11.744   0.358
13583W        W55594  19.519  13.344   3.092
13584W        W55595  15.749  17.814  10.202
13585W        W55596   7.659  14.824  14.972
13586W        W55597   2.309   6.344   2.118
13587W        W55598   9.009  16.834  11.022
13588W        W55599  15.009   5.524   2.752
13589W        W55600  20.649   8.284  10.342
13590W        W55601  10.759  10.854   1.998
13591W        W55602   9.129  15.264  15.492
13592W        W55603  18.249  18.744   3.622
13593W        W55604  17.929  25.081   8.912
13594W        W55605  19.459  11.124   9.952
13595W        W55606  13.939  20.444  10.682
13596W        W55607  10.549  22.881  10.742
13597W        W55608  11.059  23.821   3.922
13598W        W55609  11.029  22.741   8.862
13599W        W55610  19.479  24.321   1.198
13600W        W55611   7.149  16.314   3.962
13601W        W55612  23.789  21.471   8.452
13602W        W55613   3.889  17.474  11.002
13603W        W55614   1.409   6.004   1.648
13604W        W55615  20.149  19.854   3.312
13605W        W55616  22.439  13.104   3.982
13606W        W55617   0.389  13.734  10.022
13607W        W55618  12.349  11.024   9.722
13608W        W55619  24.549  23.761   2.682
13609W        W55620  18.159  14.354   1.958
13610W        W55621   4.839  12.644  15.372
13611W        W55622  10.139   8.394   0.108
13612W        W55623  12.389  19.484   3.522
13613W        W55624  19.729  19.574   3.672
13614W        W55625   5.959   4.424   9.482
13615W        W55626  21.669   3.404   1.768
13616W        W55627  12.509  12.394   0.828
13617W        W55628   0.289  18.594   3.412
13618W        W55629   2.909   5.704  10.232
13619W        W55630  10.309  13.844   3.872
13620W        W55631   4.229   2.474  10.142
13621W        W55632   5.839  13.744  10.532
13622W        W55633   7.419   6.134   0.128
13623W        W55634  21.529   2.974   3.382
13624W        W55635  11.569  14.054   3.292
13625W        W55636  22.219   5.724   8.382
13626W        W55637   5.949   0.894  11.102
13627W        W55638  23.349   9.694   9.312
13628W        W55639   3.639   9.274   7.022
13629W        W55640  24.689   6.314  10.902
13630W        W55641  23.679   6.354   2.338
13631W        W55642  10.399   5.664   2.438
13632W        W55643   9.779  24.601  10.622
13633W        W55644   9.539   3.664   0.628
13634W        W55645  19.829  22.471   1.188
13635W        W55646  25.459   3.104   9.352
13636W        W55647  18.659  10.114   0.298
13637W        W55648  22.029  13.134   9.842
13638W        W55649  19.899  22.161   8.202
13639W        W55650   2.899  19.364   0.658
13640W        W55651  17.759   6.024  10.442
13641W        W55652  23.569  18.104  11.972
13642W        W55653   7.369  24.441   9.092
13643W        W55654  18.149  20.644   3.442
13644W        W55655  14.379   3.484   0.868
13645W        W55656   9.669   5.724   1.048
13646W        W55657  19.859   3.364  10.252
13647W        W55658  13.069  22.831  15.172
13648W        W55659  23.669   2.934   0.348
13649W        W55660  14.049  13.624   2.982
13650W        W55661  19.749  16.134   2.258
13651W        W55662   0.259   4.354   2.772
13652W        W55663  11.729  22.051  10.412
13653W        W55664  21.409  22.991   4.252
13654W        W55665  11.509   8.454   9.142
13655W        W55666   3.299  19.454  10.712
13656W        W55667   4.589   8.664   7.262
13657W        W55668  20.329   2.594  10.342
13658W        W55669   7.399  17.404   1.658
13659W        W55670  23.629  16.534   9.012
13660W        W55671   3.129   3.644   0.368
13661W        W55672  21.959  22.351   1.808
13662W        W55673  17.949   1.764   9.912
13663W        W55674  16.309  22.161  15.752
13664W        W55675  17.659  19.064   2.892
13665W        W55676  21.149  18.204   1.238
13666W        W55677  10.829  21.521   0.078
13667W        W55678  17.229  11.184   9.722
13668W        W55679   9.079   0.464  10.362
13669W        W55680  24.179  23.831  10.412
13670W        W55681   5.289   9.134   1.268
13671W        W55682  19.929  16.734   4.002
13672W        W55683   8.459   0.894   0.578
13673W        W55684   4.049  22.131   2.198
13674W        W55685  20.479  18.864   8.802
13675W        W55686  14.259   9.954   3.502
13676W        W55687  22.649   3.324   7.472
13677W        W55688  18.169  15.964  10.452
13678W        W55689   0.749  12.914   9.962
13679W        W55690  17.629   8.354   3.062
13680W        W55691  17.349  16.724   8.782
13681W        W55692   3.379   4.434   2.612
13682W        W55693  24.219   4.594   8.552
13683W        W55694   2.189   8.544   0.868
13684W        W55695  21.579  17.324   9.772
13685W        W55696  21.799   2.474  11.422
13686W        W55697   5.689   1.134   3.612
13687W        W55698  12.319   8.114   3.382
13688W        W55699  14.379   5.234  14.382
13689W        W55700  17.779   3.694  15.472
13690W        W55701  20.439   7.874  15.592
13691W        W55702  23.279   4.424   0.078
13692W        W55703   1.669  21.871   8.872
13693W        W55704  18.409  13.034   9.142
13694W        W55705  15.999  16.584   0.058
13695W        W55706   0.021   4.914   8.042
13696W        W55707   4.199   1.464   2.742
13697W        W55708   1.749  20.494  15.842
13698W        W55709   8.649   1.244   1.528
13699W        W55710   9.219  19.024   0.958
13700W        W55711  12.239  16.104   9.652
13701W        W55712  25.499   1.334  15.612
13702W        W55713  18.179  22.261  10.262
13703W        W55714  18.549  11.634   1.328
13704W        W55715  21.599  14.504   0.028
13705W        W55716   0.319  10.174   2.248
13706W        W55717   1.999   2.324   3.772
13707W        W55718  13.469  16.824   2.802
13708W        W55719  22.059   4.644  15.672
13709W        W55720   4.569   8.914  10.652
13710W        W55721   3.139  20.724  10.032
13711W        W55722  17.549  16.714   9.222
13712W        W55723  18.309  15.304   2.882
13713W        W55724  23.029  20.614   9.722
13714W        W55725  20.559   1.324   2.972
13715W        W55726  21.459   6.754   3.022
13716W        W55727   7.079  11.854   9.772
13717W        W55728   2.509  20.334   3.182
13718W        W55729  24.679  12.504  10.032
13719W        W55730   7.389  19.374  15.602
13720W        W55731   6.959   4.564   9.812
13721W        W55732  19.779   4.194  12.052
13722W        W55733   7.699   8.444   0.908
13723W        W55734   8.659   2.814   3.072
13724W        W55735  18.699  19.134   1.978
13725W        W55736  14.339  12.224   0.368
13726W        W55737  11.559   8.974   1.468
13727W        W55738  14.819  14.224   5.532
13728W        W55739  21.599   3.974   8.202
13729W        W55740  21.409  15.654   1.208
13730W        W55741  25.199  13.954   3.482
13731W        W55742  12.559  24.231   8.042
13732W        W55743   7.839  24.341  15.702
13733W        W55744  11.639  14.814   2.762
13734W        W55745  15.119  22.871  15.852
13735W        W55746  22.969  15.584   0.548
13736W        W55747  21.329  23.681   8.692
13737W        W55748  20.919   6.464  10.092
13738W        W55749  20.869   9.614  15.592
13739W        W55750  19.759  22.601   1.688
13740W        W55751  24.479  21.961   8.292
13741W        W55752   2.409   3.104   0.978
13742W        W55753   2.309  14.854   1.108
13743W        W55754  20.219  23.261  12.012
13744W        W55755  21.119   3.364  15.852
13745W        W55756  17.709   5.754   8.222
13746W        W55757  13.269  13.994  15.732
13747W        W55758  24.429  16.274  11.212
13748W        W55759  12.539  15.624  15.062
13749W        W55760  10.289  22.531   4.662
13750W        W55761   8.729   1.424   0.588
13751W        W55762  18.749  20.184   8.022
13752W        W55763  10.709  10.844   9.582
13753W        W55764   3.319  14.014   2.762
13754W        W55765  24.759  22.221   0.968
13755W        W55766   2.149  13.384   8.692
13756W        W55767  12.609  11.224   1.128
13757W        W55768   7.619  13.354  10.392
13758W        W55769   4.949  21.831  10.922
13759W        W55770  12.679  13.844   2.952
13760W        W55771  12.969   8.764  10.332
13761W        W55772  21.379  21.314   7.112
13762W        W55773  16.159   8.074   3.972
13763W        W55774   1.469   7.794  11.002
13764W        W55775  15.529  25.281   2.802
13765W        W55776  22.059  12.854   8.742
13766W        W55777  23.539   0.194  10.252
13767W        W55778  19.309  24.941   9.002
13768W        W55779   1.069  24.461  11.612
13769W        W55780   0.399  18.564  11.072
13770W        W55781   5.409  15.514  10.672
13771W        W55782  10.979  25.241   9.462
13772W        W55783  15.259  16.704   1.228
13773W        W55784  17.159   8.544   9.882
13774W        W55785  19.049   5.374   9.242
13775W        W55786  18.059   2.284  10.022
13776W        W55787  23.739  20.074   2.752
13777W        W55788  20.729  12.394   0.698
13778W        W55789  17.579   1.304   1.968
13779W        W55790   2.199  18.664   8.942
13780W        W55791   1.279   1.184  11.352
13781W        W55792   3.329   1.044   6.852
13782W        W55793  18.079  24.381   0.968
13783W        W55794   0.409  17.144   9.312
13784W        W55795  15.419   8.224  10.672
13785W        W55796  11.599  19.474   2.582
13786W        W55797   3.229   0.894  11.652
13787W        W55798  22.099  20.724  11.752
13788W        W55799   6.899  19.104   2.942
13789W        W55800   5.799  17.574  10.912
13790W        W55801  20.159   1.894   8.992
13791W        W55802  23.999   9.064  15.742
13792W        W55803  12.199   1.074  15.662
13793W        W55804  14.969  23.291   8.202
13794W        W55805  23.249  16.184   9.012
13795W        W55806   2.009  11.954   8.402
13796W        W55807  21.769  20.534  11.022
13797W        W55808  22.429   3.164   8.612
13798W        W55809  18.459  21.741   9.032
13799W        W55810   0.329   9.054   1.988
13800W        W55811  11.489  11.914   3.702
13801W        W55812   5.179  17.734  11.372
13802W        W55813  17.519   4.804  10.532
13803W        W55814  20.049   8.714   0.058
13804W        W55815   7.789   6.754   9.412
13805W        W55816  11.309  10.024  15.512
13806W        W55817  18.519  19.194  11.162
13807W        W55818   5.409  15.494   0.568
13808W        W55819   5.859  14.214  15.532
13809W        W55820   1.459  20.604  11.812
13810W        W55821   2.729  11.794   8.572
13811W        W55822  13.189  18.884   1.108
13812W        W55823  19.039  16.914   0.668
13813W        W55824   3.469   7.864   1.788
13814W        W55825  22.759  17.864   0.428
13815W        W55826  13.969  19.104   0.188
13816W        W55827  13.109  22.661   0.028
13817W        W55828  17.039  11.714   9.722
13818W        W55829  11.859  25.371   0.128
13819W        W55830  21.059  25.551  10.472
13820W        W55831  15.599  25.311   9.792
13821W        W55832  12.369   8.424   9.062
13822W        W55833  22.129   2.414   6.982
13823W        W55834  23.179   8.854   0.388
13824W        W55835  19.459  22.281  10.162
13825W        W55836   1.519  15.974   8.672
13826W        W55837   3.289   9.754   9.772
13827W        W55838  10.859  12.514   2.652
13828W        W55839  20.089   2.084   2.842
13829W        W55840   4.039  16.204  11.212
13830W        W55841   7.799   6.514   8.842
13831W        W55842  22.269  12.024   7.832
13832W        W55843  17.569  10.264   3.262
13833W        W55844   7.849  12.904  15.022
13834W        W55845   8.539   3.164   0.918
13835W        W55846  19.189  10.784   9.462
13836W        W55847   9.719   1.404  15.232
13837W        W55848  19.609  18.944   9.032
13838W        W55849   9.169  22.221   1.798
13839W        W55850  24.079   9.994  11.342
13840W        W55851  14.479   7.294   1.788
13841W        W55852  23.039  17.474   8.162
13842W        W55853  17.919  19.324   9.802
13843W        W55854   9.649   3.334   9.612
13844W        W55855  22.849   3.204   4.272
13845W        W55856   7.699  20.614   1.788
13846W        W55857   2.499  18.424   2.692
13847W        W55858  19.119  17.634   1.868
13848W        W55859   5.909   9.484   9.372
13849W        W55860  23.429  10.724   8.492
13850W        W55861   0.229   7.904   9.052
13851W        W55862  16.369   3.574   9.212
13852W        W55863  21.629  13.654   9.642
13853W        W55864   8.529  11.554   0.588
13854W        W55865  15.829   3.494   8.532
13855W        W55866   8.609   3.744   7.772
13856W        W55867  11.359   3.424   2.732
13857W        W55868  16.299   3.904  15.862
13858W        W55869  24.659  20.234  11.332
13859W        W55870  17.369  15.774  11.332
13860W        W55871  20.579   3.314   0.788
13861W        W55872   3.439  11.664   2.652
13862W        W55873   5.439  22.271   1.238
13863W        W55874   8.359  16.874   8.272
13864W        W55875  14.609  25.111   2.662
13865W        W55876  19.329  22.651   3.332
13866W        W55877   1.199  11.064   8.932
13867W        W55878  19.809   4.824  10.282
13868W        W55879   1.289  10.684   8.562
13869W        W55880  16.329  19.264   2.792
13870W        W55881  19.239  23.051   3.132
13871W        W55882  13.549   6.714  15.802
13872W        W55883  17.969  16.244   2.078
13873W        W55884  11.079  25.421   8.872
13874W        W55885   8.009  11.864   3.742
13875W        W55886   3.819   7.724   0.968
13876W        W55887  25.459  21.461   1.318
13877W        W55888  10.829   1.324  10.022
13878W        W55889   6.889  13.844   0.518
13879W        W55890  12.369  18.624   0.668
13880W        W55891  16.199  20.104  10.322
13881W        W55892   9.939  15.074  15.852
13882W        W55893  23.249  14.914   9.872
13883W        W55894   7.039  14.594   0.828
13884W        W55895  14.569  20.734   8.012
13885W        W55896  13.279  12.564   2.892
13886W        W55897   9.179  17.624   1.848
13887W        W55898   9.699  18.624   2.388
13888W        W55899  15.789   5.984   3.632
13889W        W55900  21.659   4.184   0.148
13890W        W55901  25.429  21.751   9.322
13891W        W55902  20.789   5.074   9.142
13892W        W55903   1.549   4.874   9.082
13893W        W55904   6.499   2.794   0.188
13894W        W55905   0.031  22.521  10.572
13895W        W55906  21.169  10.984   8.572
13896W        W55907  15.069  16.534   0.498
13897W        W55908  23.099   8.454   9.242
13898W        W55909   7.679   4.694   3.442
13899W        W55910   4.879  21.491   0.108
13900W        W55911   6.459  21.601   1.468
13901W        W55912  14.999   5.124   9.802
13902W        W55913   1.729  11.514  10.512
13903W        W55914   1.349  23.171   2.842
13904W        W55915   5.659   3.654   0.098
13905W        W55916  14.329  21.971  10.322
13906W        W55917   0.539   2.624  10.832
13907W        W55918   6.169  13.884   8.172
13908W        W55919   3.709   0.684   2.712
13909W        W55920  23.309  13.334   2.288
13910W        W55921  24.079   0.754  11.912
13911W        W55922   9.629  18.804  15.062
13912W        W55923   9.019   0.054   9.022
13913W        W55924  10.119  15.814   2.008
13914W        W55925  16.799  20.944   3.952
13915W        W55926  11.639  25.411   3.332
13916W        W55927  15.039  18.764  15.332
13917W        W55928   4.229  11.014   8.432
13918W        W55929  21.889  21.471   9.132
13919W        W55930   0.389   0.194   8.202
13920W        W55931   2.599   5.864   2.498
13921W        W55932   4.609   1.274   3.062
13922W        W55933   9.099   1.084   3.112
13923W        W55934  11.789  12.414   1.228
13924W        W55935   0.011   2.324   8.582
13925W        W55936   0.139   2.754   0.128
13926W        W55937  12.209   2.374   2.348
13927W        W55938   6.649  11.464   9.842
13928W        W55939  19.539   1.414   9.622
13929W        W55940   7.709  20.194   2.572
13930W        W55941  19.039   8.144  11.312
13931W        W55942  15.889  19.184   7.762
13932W        W55943  25.189   0.164   1.938
13933W        W55944  17.239  16.924   0.778
13934W        W55945  14.879  24.981   9.422
13935W        W55946   5.569   6.764   7.762
13936W        W55947   4.129   7.224  10.972
13937W        W55948   0.159   9.894   8.542
13938W        W55949   6.989   1.704  10.292
13939W        W55950   2.899  17.624   1.688
13940W        W55951  12.339  20.614   4.422
13941W        W55952   9.539   6.224   2.682
13942W        W55953   0.549  24.621   9.412
13943W        W55954  17.929   0.924   1.728
13944W        W55955   4.619  23.621   8.492
13945W        W55956   9.339  18.304  15.832
13946W        W55957  15.909  21.294   9.562
13947W        W55958  20.109   3.564   8.292
13948W        W55959  17.199  10.324  14.992
13949W        W55960  10.169  16.494   3.932
13950W        W55961   3.049   6.904  15.172
13951W        W55962   3.929   8.074   1.428
13952W        W55963   4.949  19.794   2.652
13953W        W55964  10.239  11.844   0.758
13954W        W55965   0.011   8.174   1.088
13955W        W55966   0.041   8.874  15.102
13956W        W55967   5.399  20.254   0.428
13957W        W55968   7.869   5.084  14.892
13958W        W55969  25.549   3.144   8.002
13959W        W55970  12.689   6.104  10.182
13960W        W55971   3.799   7.154   7.812
13961W        W55972   9.609   7.884  10.172
13962W        W55973  20.959   9.414   9.402
13963W        W55974   3.199  12.254   2.562
13964W        W55975   0.449  12.944   3.312
13965W        W55976   5.099   0.404   3.032
13966W        W55977  11.989  17.244   2.068
13967W        W55978  12.729  17.284   9.372
13968W        W55979  20.129  15.724   3.042
13969W        W55980   6.719  10.934   1.608
13970W        W55981  19.909  17.134   2.268
13971W        W55982  10.489  22.101  10.162
13972W        W55983  24.679   5.574  10.282
13973W        W55984   8.659  21.381   0.108
13974W        W55985  10.319   0.634  10.422
13975W        W55986  24.019  18.444   1.838
13976W        W55987  12.389   8.564   1.658
13977W        W55988   1.829   3.244   7.322
13978W        W55989  24.419   6.184   7.482
13979W        W55990  14.729  12.234  15.012
13980W        W55991   9.489   0.724   2.018
13981W        W55992   8.729  21.551   3.132
13982W        W55993  14.769   7.384   2.208
13983W        W55994  10.879  13.164  15.732
13984W        W55995  12.389  24.731   8.832
13985W        W55996  18.199  19.204   2.882
13986W        W55997   3.879  16.544   9.902
13987W        W55998  15.959  22.351   1.838
13988W        W55999  11.359   8.754   1.048
13989W        W56000  12.989   8.144   9.572
13990W        W56001   2.859   5.274   8.802
13991W        W56002  22.849   6.284   8.642
13992W        W56003  20.239  15.394   2.532
13993W        W56004  18.749   8.854   3.162
13994W        W56005   9.359   1.384   3.742
13995W        W56006  19.119   4.954  11.852
13996W        W56007   8.329   3.564   8.482
13997W        W56008  20.549   1.274   0.948
13998W        W56009  25.209  16.524  11.832
13999W        W56010  14.039  20.004   4.822
14000W        W56011  24.619   7.464   8.542
14001W        W56012  19.419   4.684   9.462
14002W        W56013  11.529  18.194  10.942
14003W        W56014  23.529   3.964  10.222
14004W        W56015   4.889   8.164   0.248
14005W        W56016  22.939   8.544   2.662
14006W        W56017  21.139  11.724   1.918
14007W        W56018   3.809  22.261  10.182
14008W        W56019  24.049   7.354   3.402
14009W        W56020  10.259  15.814   0.238
14010W        W56021   8.699   7.604   8.622
14011W        W56022  18.519   0.814   0.108
14012W        W56023  17.749  23.491   7.982
14013W        W56024  17.189   2.804   3.592
14014W        W56025  10.749   0.044   0.968
14015W        W56026   9.749  11.834   0.548
14016W        W56027  11.969  15.644   9.682
14017W        W56028   9.829  21.611   1.438
14018W        W56029  21.139   8.454  10.212
14019W        W56030  23.659  11.824   4.202
14020W        W56031   2.029   1.474   2.408
14021W        W56032   4.269   8.044   1.068
14022W        W56033   5.569  13.594   8.862
14023W        W56034   2.799   2.984  15.052
14024W        W56035   8.129   5.264   9.682
14025W        W56036  15.879  23.671  10.952
14026W        W56037  22.709  21.304   1.298
14027W        W56038  13.969  11.614   0.028
14028W        W56039   8.449  10.664   2.932
14029W        W56040   1.229   0.664   2.328
14030W        W56041   1.199  13.104   0.588
14031W        W56042  13.259   1.484   8.932
14032W        W56043  19.149  23.131  10.502
14033W        W56044  23.779   7.784   8.362
14034W        W56045  25.519  19.964   8.712
14035W        W56046  17.929   7.124  15.142
14036W        W56047  18.219  11.884   9.622
14037W        W56048  20.579  16.484   8.742
14038W        W56049  19.749  18.704   9.512
14039W        W56050  16.859   7.234   9.552
14040W        W56051   8.329   8.834   9.282
14041W        W56052  17.459  21.371   9.352
14042W        W56053   5.749  10.254   8.782
14043W        W56054   6.529   4.654   8.762
14044W        W56055  25.099  17.244   8.442
14045W        W56056  17.809   0.894   1.228
14046W        W56057  24.249   3.434   1.948
14047W        W56058  16.329  21.861   7.802
14048W        W56059  17.579   8.204   1.748
14049W        W56060  23.029   8.654   3.582
14050W        W56061  12.139  17.264   4.112
14051W        W56062  22.279   7.954  15.692
14052W        W56063  11.019  25.351  15.502
14053W        W56064   5.969   4.474   8.542
14054W        W56065  24.709  19.994   3.672
14055W        W56066  13.729   1.954  15.822
14056W        W56067   9.389   5.404  10.972
14057W        W56068  20.839  14.064   9.082
14058W        W56069   6.659  20.404   3.782
14059W        W56070   5.299   7.014   0.618
14060W        W56071   8.559   2.094   1.178
14061W        W56072  18.469   0.034  10.972
14062W        W56073  14.689  15.834   4.532
14063W        W56074  21.429  13.844  11.192
14064W        W56075  16.819  21.284  10.652
14065W        W56076  20.579   3.934   0.338
14066W        W56077  12.879   9.764   9.142
14067W        W56078   2.169   1.034  10.262
14068W        W56079   9.719  22.371   2.932
14069W        W56080   4.669   5.744  10.492
14070W        W56081  22.369   6.084   8.682
14071W        W56082   4.549  21.711  11.212
14072W        W56083   0.979   1.444  11.682
14073W        W56084   4.329  17.944   9.702
14074W        W56085  22.259   5.754   2.388
14075W        W56086   4.069  22.141   3.182
14076W        W56087   2.129  21.641  11.402
14077W        W56088  15.809  19.654   0.248
14078W        W56089  10.489  21.381   0.838
14079W        W56090   6.639   0.954  10.582
14080W        W56091   9.419   2.494   2.078
14081W        W56092   3.089  23.251   0.248
14082W        W56093   2.839  22.951  11.282
14083W        W56094  21.159  24.701  10.542
14084W        W56095   9.089  16.984   4.322
14085W        W56096  11.459   8.344  15.032
14086W        W56097  20.089   6.924   8.332
14087W        W56098  11.149   3.814   0.088
14088W        W56099  15.009   6.844   8.822
14089W        W56100  10.599  23.631   3.332
14090W        W56101  22.249   2.434  12.142
14091W        W56102  15.289   6.684   0.988
14092W        W56103  13.689   5.954   8.312
14093W        W56104  11.739   7.324   8.172
14094W        W56105  10.039  25.521  11.082
14095W        W56106  25.369  17.004   2.852
14096W        W56107   5.869  22.491   1.478
14097W        W56108   6.659   0.874   0.878
14098W        W56109  10.609  11.854   1.118
14099W        W56110  10.459  13.534   0.738
14100W        W56111   3.959   6.334  10.252
14101W        W56112  10.459   2.224   3.542
14102W        W56113   6.069   2.524   9.442
14103W        W56114  23.689   7.114  12.202
14104W        W56115   7.779  21.254   3.012
14105W        W56116   8.379  21.701   4.042
14106W        W56117  19.689  15.054  10.552
14107W        W56118  16.119   6.984  15.502
14108W        W56119   0.779   9.294   9.592
14109W        W56120  10.649  16.984  10.032
14110W        W56121  24.219   6.054   6.672
14111W        W56122   0.031  23.721   1.498
14112W        W56123  22.859   9.714   7.442
14113W        W56124   2.209  22.991  10.352
14114W        W56125  13.969  13.764   9.062
14115W        W56126  23.479  22.261   2.318
14116W        W56127  12.789  14.934  11.072
14117W        W56128  13.669   5.874   2.368
14118W        W56129  11.009  23.591   9.132
14119W        W56130  20.929  18.994   9.812
14120W        W56131   3.879  20.144   1.118
14121W        W56132  15.779  24.701   1.588
14122W        W56133   2.639  10.824   3.342
14123W        W56134  20.779   8.734   1.948
14124W        W56135   5.499  13.704  11.282
14125W        W56136  22.739   1.204   1.628
14126W        W56137  19.079  19.404   0.608
14127W        W56138  20.239  20.134   1.328
14128W        W56139  11.859  20.134   0.558
14129W        W56140   6.639   7.774   3.032
14130W        W56141   8.929   4.734   8.832
14131W        W56142  15.489   8.524  10.262
14132W        W56143  16.399  21.244  15.432
14133W        W56144  11.859  20.484  15.132
14134W        W56145   8.279  17.934   1.658
14135W        W56146  22.279   2.284   8.302
14136W        W56147  25.409  12.614   9.032
14137W        W56148  22.999  15.514  11.002
14138W        W56149  12.329   4.314   1.888
14139W        W56150  14.219  22.671   3.002
14140W        W56151  25.239   1.664   0.728
14141W        W56152  14.829  14.214   3.742
14142W        W56153   7.969  11.534   9.582
14143W        W56154  20.229   3.144   3.892
14144W        W56155   0.749  21.541  10.652
14145W        W56156  15.129  13.624  15.322
14146W        W56157  20.829  11.544   9.102
14147W        W56158   6.279  23.451   0.448
14148W        W56159  18.929  25.101   7.402
14149W        W56160  24.649   7.154  10.492
14150W        W56161   3.329  16.584   3.262
14151W        W56162  18.979   0.904   1.128
14152W        W56163  17.169  16.594  11.452
14153W        W56164  13.409  13.014   5.192
14154W        W56165  24.669  23.431   3.142
14155W        W56166  13.279   6.124   9.642
14156W        W56167   4.079   1.054   8.582
14157W        W56168  10.219  15.294   1.978
14158W        W56169   7.229   1.204  15.132
14159W        W56170  25.419  16.164  12.162
14160W        W56171  18.039  23.951   3.022
14161W        W56172   1.579  12.204   1.578
14162W        W56173  12.869  12.224   5.052
14163W        W56174   8.139   3.214  15.172
14164W        W56175  14.679   5.244   0.288
14165W        W56176  13.889   8.354   8.412
14166W        W56177   1.849  19.314   0.568
14167W        W56178   2.369   4.384   9.602
14168W        W56179  18.299  23.251  10.912
14169W        W56180   6.869   9.974   2.612
14170W        W56181   4.939  13.714   3.202
14171W        W56182   6.449  17.794  14.812
14172W        W56183  19.129   4.574   2.642
14173W        W56184   5.189  24.901   2.742
14174W        W56185  22.539  12.314  11.342
14175W        W56186  16.389   1.214   7.962
14176W        W56187  11.499  13.344   9.742
14177W        W56188  10.739   3.224   0.148
14178W        W56189  23.999  22.891   3.382
14179W        W56190   2.069   1.654   7.932
14180W        W56191   0.999  10.844   0.788
14181W        W56192   8.899  20.024   9.832
14182W        W56193   3.959  14.164  11.592
14183W        W56194   1.119  18.444   9.982
14184W        W56195  12.599   5.554  15.202
14185W        W56196  15.459  17.034   8.722
14186W        W56197  10.559  13.154   0.398
14187W        W56198   6.729   8.654   1.818
14188W        W56199  10.279  10.874  15.172
14189W        W56200  25.099  13.114  10.812
14190W        W56201  21.169   7.834   2.258
14191W        W56202  22.539  12.714   0.228
14192W        W56203  24.129  18.314   9.952
14193W        W56204  17.459   3.484   1.098
14194W        W56205  11.889  21.334   2.772
14195W        W56206  11.359   4.104  14.952
14196W        W56207   7.449   1.084   1.528
14197W        W56208  25.449  24.371   0.238
14198W        W56209   9.459   8.424   7.792
14199W        W56210  14.939  10.194  15.202
14200W        W56211   3.399  13.224   7.082
14201W        W56212   5.709  23.661   7.682
14202W        W56213  21.859  12.874   8.252
14203W        W56214   0.519  19.444   2.028
14204W        W56215  16.639  13.674   4.452
14205W        W56216   2.069  25.101   8.042
14206W        W56217   8.869  14.474   9.222
14207W        W56218   8.809  25.531   2.992
14208W        W56219   1.079   5.924   2.592
14209W        W56220  16.629  23.611   8.792
14210W        W56221   7.689   4.314   1.328
14211W        W56222  23.099  20.014   9.782
14212W        W56223   3.619   9.354   1.708
14213W        W56224   2.539  11.934  10.852
14214W        W56225  24.879   3.594   3.652
14215W        W56226  15.399   3.934   1.618
14216W        W56227  17.649   2.644  10.482
14217W        W56228   3.169  10.604   0.678
14218W        W56229  11.899   2.764   3.172
14219W        W56230  19.639   3.404   2.398
14220W        W56231   3.079  13.344  14.602
14221W        W56232   5.979   9.564   8.862
14222W        W56233  16.629  21.124   2.732
14223W        W56234  14.109  17.634   2.602
14224W        W56235  21.719   3.424   0.818
14225W        W56236  18.389   5.194   7.782
14226W        W56237   7.279   7.524   9.002
14227W        W56238   1.419  12.954   9.052
14228W        W56239   6.209  17.444   0.988
14229W        W56240   8.239  21.711   8.972
14230W        W56241  19.389  16.424   1.548
14231W        W56242  23.799   6.554  10.592
14232W        W56243   5.429   5.754   9.852
14233W        W56244  16.389  14.864  10.232
14234W        W56245   7.119   9.504   7.152
14235W        W56246   1.309  15.064  15.042
14236W        W56247  10.069   8.124  10.312
14237W        W56248  15.289  18.404   0.628
14238W        W56249  18.219  25.321   1.068
14239W        W56250  18.459  24.941  12.022
14240W        W56251  23.049  14.554   1.938
14241W        W56252  17.349  13.044  15.832
14242W        W56253  20.169   2.194  11.732
14243W        W56254  16.849   9.124  10.372
14244W        W56255  17.299   1.604   0.348
14245W        W56256   3.319  18.994   0.928
14246W        W56257  13.099  14.274  11.012
14247W        W56258  24.779  14.504   1.468
14248W        W56259  14.929   0.684   4.652
14249W        W56260  19.379  22.071   8.612
14250W        W56261  20.019  17.684   1.448
14251W        W56262  24.099   7.424  10.682
14252W        W56263   4.279   0.974   3.932
14253W        W56264   8.519  25.061   1.678
14254W        W56265  15.519  15.554  14.652
14255W        W56266  11.149  25.271  10.702
14256W        W56267  17.399  23.941   1.878
14257W        W56268  10.379   8.734   0.548
14258W        W56269  10.659   2.694   8.682
14259W        W56270  17.009  11.644  15.762
14260W        W56271  14.899   9.424  14.792
14261W        W56272  14.439  23.781   3.012
14262W        W56273   2.319  24.021   1.628
14263W        W56274   8.819   7.104  10.662
14264W        W56275  12.289   5.524   2.208
14265W        W56276  13.039  11.984  15.602
14266W        W56277  15.729   8.514   4.022
14267W        W56278  20.559  10.654   9.432
14268W        W56279  19.669  12.584   3.222
14269W        W56280  19.929  18.884   2.208
14270W        W56281   7.349  13.304  15.762
14271W        W56282  22.309  15.994   3.322
14272W        W56283  10.179   8.794   9.202
14273W        W56284  15.979   4.254   2.118
14274W        W56285  23.019   6.064   1.058
14275W        W56286   0.439   6.074   2.532
14276W        W56287   7.079   5.184  15.682
14277W        W56288  21.399  21.354  12.522
14278W        W56289  25.579  21.044   0.988
14279W        W56290   2.839  10.354  15.672
14280W        W56291   0.229   0.084   4.032
14281W        W56292  20.179   7.974   2.498
14282W        W56293  22.639   9.084   9.202
14283W        W56294   9.019   1.834   0.618
14284W        W56295  20.769  20.424  11.382
14285W        W56296   9.319  14.364   9.522
14286W        W56297  17.799  24.221   3.542
14287W        W56298  17.999   3.784   1.808
14288W        W56299  20.589  19.614   2.288
14289W        W56300  19.339  20.804  12.302
14290W        W56301  15.009   0.284   1.648
14291W        W56302  18.539   5.084   7.262
14292W        W56303   4.469  17.394   8.802
14293W        W56304  13.949   8.524   4.162
14294W        W56305   3.429  23.321   9.912
14295W        W56306  11.569  14.884   1.878
14296W        W56307   0.489  22.001   1.618
14297W        W56308   0.819  24.441   0.038
14298W        W56309   5.809   5.184   9.102
14299W        W56310  25.519   6.444   1.528
14300W        W56311   6.469  17.044   8.602
14301W        W56312   8.729  14.334   0.778
14302W        W56313  12.099  18.364   2.498
14303W        W56314   1.469   7.974  14.822
14304W        W56315  12.279  20.974   9.412
14305W        W56316  22.059  10.474  11.812
14306W        W56317   7.849  12.094   0.698
14307W        W56318  18.429  13.344   9.962
14308W        W56319  10.759   1.164   8.212
14309W        W56320   1.699  16.134   2.288
14310W        W56321  10.559  25.541   0.018
14311W        W56322  17.089   6.404  14.862
14312W        W56323   3.669  23.021   2.732
14313W        W56324   2.139  17.164   0.218
14314W        W56325  17.199  14.814   3.492
14315W        W56326  21.079   2.004  11.482
14316W        W56327  15.209  20.314   3.362
14317W        W56328   1.139   2.024   9.382
14318W        W56329  14.729  16.884   2.702
14319W        W56330   6.179   8.464   7.862
14320W        W56331  17.589  16.364   1.148
14321W        W56332   3.549  18.574   0.908
14322W        W56333  22.129   1.484   2.318
14323W        W56334   9.969  23.721   9.012
14324W        W56335   4.709  10.554   1.878
14325W        W56336   9.599   4.414  15.862
14326W        W56337  25.589  23.311   3.822
14327W        W56338   3.649  18.544  10.952
14328W        W56339  20.869  10.644  15.782
14329W        W56340   0.599   9.904  10.882
14330W        W56341  15.809   8.464   9.402
14331W        W56342  19.659  25.381   8.042
14332W        W56343   5.509   8.334   0.898
14333W        W56344  17.739  23.011   1.878
14334W        W56345   1.469  16.634   1.148
14335W        W56346  10.109  18.634  10.572
14336W        W56347   9.859  12.254   8.452
14337W        W56348   7.459  21.304  11.452
14338W        W56349   7.119  12.994   8.012
14339W        W56350   0.439  17.814  15.632
14340W        W56351  16.259   8.784   3.962
14341W        W56352  19.289  16.034   8.782
14342W        W56353  10.109  15.114   4.332
14343W        W56354   5.469  12.384   2.982
14344W        W56355  11.879   0.034   4.112
14345W        W56356  13.179   2.404   0.818
14346W        W56357   7.799  21.244   1.048
14347W        W56358  10.839   6.584  14.852
14348W        W56359  18.019  19.944   9.022
14349W        W56360  16.789  18.444   2.862
14350W        W56361   8.809  20.314   4.072
14351W        W56362   0.789  25.361  15.442
14352W        W56363   2.709   3.934   8.862
14353W        W56364  24.319  25.591   0.588
14354W        W56365  11.979   1.294   9.522
14355W        W56366  21.509   8.234  11.282
14356W        W56367   8.439  23.911   9.142
14357W        W56368  10.789  20.074  14.932
14358W        W56369  16.119  19.314   1.968
14359W        W56370   3.869   9.624  10.372
14360W        W56371   3.109  13.264  10.942
14361W        W56372  23.669   1.434   8.982
14362W        W56373   2.039  13.174   2.932
14363W        W56374  10.619  16.294   9.532
14364W        W56375  25.579  23.251   8.992
14365W        W56376  12.999  12.534   0.688
14366W        W56377  16.799   7.154   1.538
14367W        W56378  18.199   2.184   3.062
14368W        W56379  20.389  17.744   2.672
14369W        W56380   4.109   6.674   8.622
14370W        W56381  19.279   3.154   7.972
14371W        W56382   4.759  17.824   9.972
14372W        W56383  10.239   5.624   1.128
14373W        W56384   4.139   5.084   8.172
14374W        W56385  13.419  11.274   4.522
14375W        W56386  17.489  10.164   8.902
14376W        W56387   3.689  23.991   1.808
14377W        W56388  17.919  25.521   2.922
14378W        W56389  20.549   4.784   1.398
14379W        W56390  21.479   8.904   1.658
14380W        W56391   7.069  23.971   3.822
14381W        W56392  19.519  13.064   2.168
14382W        W56393   3.029  16.894   7.882
14383W        W56394   3.609   8.254   6.992
14384W        W56395  19.629  16.594   0.808
14385W        W56396   3.589  22.861   9.002
14386W        W56397   2.059  19.394   0.148
14387W        W56398  20.099   1.294   9.692
14388W        W56399  18.979  24.331   1.398
14389W        W56400  20.089  21.334   3.552
14390W        W56401  10.149   6.844   3.752
14391W        W56402  17.239   9.784  10.442
14392W        W56403  18.879  15.764   0.118
14393W        W56404   9.109   0.334   3.152
14394W        W56405  21.149  24.861   9.882
14395W        W56406  22.869  13.404  12.192
14396W        W56407  16.759   2.584   9.902
14397W        W56408   0.519  22.131   8.542
14398W        W56409   1.579  11.774  10.972
14399W        W56410  19.819   8.064   7.792
14400W        W56411  19.229  19.164   1.958
14401W        W56412  21.819  19.214   9.782
14402W        W56413  19.729  16.114   1.308
14403W        W56414  14.379  10.644   3.012
14404W        W56415  15.239  24.271   3.662
14405W        W56416   0.459   9.344   7.822
14406W        W56417  18.719  24.081  10.692
14407W        W56418   7.809  13.814  15.112
14408W        W56419   8.969  18.634   9.782
14409W        W56420  18.079   6.004   3.262
14410W        W56421  16.829  13.374   4.032
14411W        W56422  19.619  18.514   8.832
14412W        W56423  12.899   0.184  10.342
14413W        W56424   3.709  14.984   1.378
14414W        W56425   3.949  16.104   2.208
14415W        W56426  14.239   6.184   1.818
14416W        W56427   0.599  18.934  10.882
14417W        W56428  22.629  12.014   7.462
14418W        W56429   6.849  19.324   1.898
14419W        W56430   8.299  13.254   9.052
14420W        W56431  16.819  19.344   8.582
14421W        W56432   7.339   1.594  11.042
14422W        W56433   1.649  10.414   3.582
14423W        W56434  24.929   4.364   8.042
14424W        W56435   2.619  21.861  10.802
14425W        W56436  14.869  18.724   0.638
14426W        W56437  18.299  14.344   0.138
14427W        W56438  22.639  22.691  10.502
14428W        W56439   3.079  13.694   3.122
14429W        W56440   2.019  11.064   8.822
14430W        W56441  11.929  16.844  15.692
14431W        W56442  13.269  23.301   0.838
14432W        W56443  12.409  18.524   2.088
14433W        W56444   3.489  14.014  10.302
14434W        W56445   0.089  20.534   3.242
14435W        W56446  20.489  18.974   6.982
14436W        W56447  18.229   8.574   8.282
14437W        W56448   5.089   3.014   2.088
14438W        W56449  17.999  19.674   9.452
14439W        W56450   1.869   2.194  10.672
14440W        W56451  24.909  17.564   0.628
14441W        W56452  25.329   1.414   2.318
14442W        W56453   4.989  18.254  11.282
14443W        W56454  23.259  22.551   3.572
14444W        W56455  13.609   3.234  15.392
14445W        W56456   6.249  12.914  15.382
14446W        W56457   9.769   7.644   7.922
14447W        W56458  21.349   2.104   0.668
14448W        W56459   3.749   5.454  11.082
14449W        W56460  17.359  19.214   8.782
14450W        W56461   2.739  24.241   2.328
14451W        W56462  18.819  24.561   0.498
14452W        W56463  21.709  12.034   1.188
14453W        W56464  23.049  14.404  10.622
14454W        W56465  19.739  10.344  10.592
14455W        W56466   1.509  10.164   2.502
14456W        W56467  23.289   5.514  10.122
14457W        W56468  21.829  25.051  11.372
14458W        W56469   6.909  25.491  11.742
14459W        W56470  22.159   6.844   1.338
14460W        W56471  24.339  23.011   2.962
14461W        W56472  21.409   7.554   1.318
14462W        W56473  10.759  17.294   3.492
14463W        W56474  14.769   3.164   0.698
14464W        W56475  20.119   4.104   3.892
14465W        W56476   8.259  17.764  10.592
14466W        W56477  15.979   0.504  10.262
14467W        W56478   4.669  12.184   1.268
14468W        W56479  17.559  14.024   1.168
14469W        W56480  15.909  12.904   3.572
14470W        W56481  22.899  25.321   8.892
14471W        W56482  21.099   9.854   2.398
14472W        W56483  11.279  18.714   2.702
14473W        W56484  20.479  21.254   0.028
14474W        W56485  22.739   2.494  12.042
14475W        W56486   7.809  21.671  15.422
14476W        W56487  18.869  12.314   7.922
14477W        W56488  12.679   9.534  14.932
14478W        W56489  20.799  23.651   1.778
14479W        W56490   2.299   6.414   0.338
14480W        W56491  12.489   3.584   9.472
14481W        W56492  11.569  17.494   2.582
14482W        W56493  22.629  24.381   0.288
14483W        W56494  14.179  16.984   2.732
14484W        W56495  15.529   7.204   1.808
14485W        W56496  23.689  25.391  10.542
14486W        W56497  24.689   3.864   9.982
14487W        W56498  19.079   7.164  11.022
14488W        W56499  24.969   5.874   8.982
14489W        W56500  22.669   4.064   8.602
14490W        W56501  12.649  18.344   2.662
14491W        W56502   4.239  18.244   9.302
14492W        W56503  24.469  11.404   8.272
14493W        W56504  25.139  19.924   9.592
14494W        W56505  24.289   2.814   7.282
14495W        W56506  13.709  19.474  15.102
14496W        W56507   6.639   5.844   8.402
14497W        W56508  16.059  20.144  11.402
14498W        W56509  22.839  16.654   0.798
14499W        W56510   9.509  18.414   2.922
14500W        W56511  21.589   8.224   2.522
14501W        W56512   6.859  23.831   1.258
14502W        W56513  21.989  24.161   3.072
14503W        W56514   6.309  12.744   2.842
14504W        W56515  10.279  11.114   9.652
14505W        W56516  10.159  21.431   9.842
14506W        W56517  24.019  17.864   0.558
14507W        W56518  12.579  10.644  10.032
14508W        W56519   7.409  14.134  15.132
14509W        W56520   6.209   0.704   0.458
14510W        W56521  10.699  17.834   0.218
14511W        W56522  20.529  21.234  11.572
14512W        W56523  22.299  19.394   9.862
14513W        W56524   4.759  24.711   3.002
14514W        W56525  18.219  23.171  10.412
14515W        W56526  18.369   7.494   1.888
14516W        W56527  15.069  17.974   0.888
14517W        W56528  21.009  23.881   0.948
14518W        W56529   5.429  23.351   2.268
14519W        W56530   1.559   2.254   2.118
14520W        W56531  18.189  13.504   2.258
14521W        W56532  12.779   0.474   3.432
14522W        W56533  24.879  19.694   2.358
14523W        W56534   8.629   4.844   3.932
14524W        W56535  15.369   7.634   0.648
14525W        W56536  15.219  19.924   0.768
14526W        W56537   9.859   5.044  10.282
14527W        W56538  18.239  11.664   0.918
14528W        W56539   1.529   1.534  15.002
14529W        W56540  19.329   8.874   8.782
14530W        W56541  23.549   3.434   0.568
14531W        W56542  17.019   9.084   3.092
14532W        W56543   2.259  11.694   0.818
14533W        W56544  24.919   4.924   1.128
14534W        W56545  23.479  16.424   3.742
14535W        W56546  23.129  15.004   2.742
14536W        W56547   4.769   8.274   8.882
14537W        W56548   9.459  18.374   9.202
14538W        W56549   8.629  10.624  14.712
14539W        W56550   9.019   5.344   9.692
14540W        W56551  13.409  20.014   4.012
14541W        W56552  22.279   1.224   0.068
14542W        W56553  18.999   1.824  11.532
14543W        W56554   4.069  10.574   0.838
14544W        W56555  16.409  13.754   4.022
14545W        W56556   6.859  24.341   0.228
14546W        W56557  10.059  21.911   9.822
14547W        W56558  21.069  21.214   8.312
14548W        W56559  16.619   7.244   0.488
14549W        W56560  15.439  18.624   1.268
14550W        W56561  15.169  15.554   0.248
14551W        W56562  18.859   6.874  10.652
14552W        W56563   2.919   6.814   1.938
14553W        W56564  19.899  18.124  11.452
14554W        W56565   6.659  17.794   9.842
14555W        W56566  10.299  17.314   9.982
14556W        W56567   1.749  24.871   1.448
14557W        W56568   3.599   1.574   1.448
14558W        W56569   6.759   9.894  15.772
14559W        W56570   9.079  24.411   8.682
14560W        W56571   3.279   4.824   1.308
14561W        W56572   8.659  10.904  10.222
14562W        W56573  18.179  18.284   8.672
14563W        W56574   9.239   5.924   3.552
14564W        W56575   0.839  24.291   1.398
14565W        W56576  12.389   2.624   2.712
14566W        W56577   7.249  12.394  10.342
14567W        W56578   3.039  20.944   8.502
14568W        W56579  18.519  12.484   4.112
14569W        W56580  14.779   1.724   8.932
14570W        W56581  21.079   1.714   2.208
14571W        W56582  19.669  24.721   3.282
14572W        W56583  24.669   7.554  11.812
14573W        W56584  14.219   5.064   0.208
14574W        W56585  24.489   0.374   7.542
14575W        W56586  22.159  22.431   2.692
14576W        W56587  12.799  16.354   1.068
14577W        W56588  22.989  20.164  10.592
14578W        W56589   5.919  10.524   0.768
14579W        W56590   4.559   5.244  10.472
14580W        W56591   6.929  22.831  11.132
14581W        W56592   1.249  15.704   2.348
14582W        W56593   1.839   4.014   0.958
14583W        W56594  23.799   3.234   8.612
14584W        W56595  10.789  25.211   1.178
14585W        W56596   8.669   9.184  15.792
14586W        W56597  22.069  10.944   3.042
14587W        W56598  19.959  14.034   3.252
14588W        W56599  10.579   3.694   0.048
14589W        W56600  10.459  19.564   3.142
14590W        W56601  23.319  15.444   7.912
14591W        W56602   0.949   1.754  10.522
14592W        W56603  24.659  24.861  10.002
14593W        W56604   6.939  16.794   0.108
14594W        W56605  23.369   2.944   8.212
14595W        W56606   3.269  13.634   1.078
14596W        W56607  15.999   2.804   0.208
14597W        W56608  24.109  20.344  10.482
14598W        W56609  18.449   2.804   2.792
14599W        W56610  24.799  20.574   1.448
14600W        W56611  22.719  20.734   3.402
14601W        W56612  23.739  24.481   8.192
14602W        W56613  24.069  22.101  11.032
14603W        W56614  12.739  14.804   4.492
14604W        W56615  13.859   7.114   9.612
14605W        W56616  21.899  17.624   8.812
14606W        W56617  18.229   6.974   2.582
14607W        W56618  10.309  13.854   9.152
14608W        W56619  10.459  15.214  10.952
14609W        W56620   1.279  15.264   2.722
14610W        W56621   8.089  24.681   3.762
14611W        W56622   3.619  19.944   0.688
14612W        W56623   3.789  10.734   8.662
14613W        W56624  16.319  11.484   9.302
14614W        W56625  21.309   9.484  11.092
14615W        W56626  17.549   9.344   9.112
14616W        W56627  25.469  23.761   0.928
14617W        W56628   7.769  16.634  10.442
14618W        W56629  17.649  13.464  10.442
14619W        W56630   2.819   5.104   0.558
14620W        W56631   3.679   7.214   2.952
14621W        W56632  23.269  11.164   2.438
14622W        W56633  12.209  12.004  14.672
14623W        W56634   6.419  21.541   9.522
14624W        W56635   4.099   7.414  10.042
14625W        W56636   0.539   5.854  11.442
14626W        W56637   1.749  19.854   8.412
14627W        W56638  19.379   2.094  10.512
14628W        W56639   2.469   3.624   1.748
14629W        W56640   3.959  14.504   1.598
14630W        W56641  22.559   1.944  11.762
14631W        W56642   2.889  13.404   9.142
14632W        W56643  15.489  19.204   3.962
14633W        W56644   0.559  13.344   9.682
14634W        W56645  13.479  19.464   2.358
14635W        W56646  12.399  21.671   1.998
14636W        W56647  15.749  16.764   1.148
14637W        W56648  12.859  10.854  15.232
14638W        W56649  18.159  21.971   2.542
14639W        W56650  17.489  15.734   8.872
14640W        W56651  17.909  21.631   8.362
14641W        W56652  12.879  19.594   9.392
14642W        W56653  18.069   2.694   8.452
14643W        W56654   1.219   3.954  10.642
14644W        W56655  22.209   7.054   1.978
14645W        W56656  11.459  13.834  10.522
14646W        W56657   6.349  10.144   3.872
14647W        W56658  22.709   9.214   9.922
14648W        W56659  10.939   4.084   9.152
14649W        W56660  11.009  23.061   1.628
14650W        W56661  18.029  16.384  10.992
14651W        W56662  20.909  22.851  11.842
14652W        W56663  18.469  24.111   9.852
14653W        W56664  11.949   7.354  14.902
14654W        W56665  18.719  13.724   3.252
14655W        W56666  13.959  17.004  14.652
14656W        W56667  15.989  21.244   2.692
14657W        W56668  19.599  23.161   9.502
14658W        W56669   8.679   9.804  14.942
14659W        W56670   5.729   8.584   2.672
14660W        W56671  19.779  19.784  10.072
14661W        W56672   7.839  24.701   0.518
14662W        W56673  11.729  17.264  14.122
14663W        W56674  20.259   8.834   3.482
14664W        W56675  15.489   6.354  14.692
14665W        W56676  21.339  20.274   8.512
14666W        W56677  18.209  23.911   0.078
14667W        W56678   4.969  18.374  12.062
14668W        W56679   2.529  14.784  11.142
14669W        W56680   5.819  18.344   0.838
14670W        W56681  23.589   6.834  10.192
14671W        W56682  14.349  11.864  15.742
14672W        W56683  24.739  13.934   2.248
14673W        W56684  22.499  22.811   3.852
14674W        W56685  21.379  24.211   0.258
14675W        W56686  24.169   5.564   6.772
14676W        W56687   5.559   2.224   9.152
14677W        W56688   5.609  21.094   7.962
14678W        W56689   5.499  21.711   1.248
14679W        W56690  15.539   7.554   9.732
14680W        W56691  18.249  22.031   9.402
14681W        W56692   7.459  17.714   8.652
14682W        W56693  19.319  10.104  10.752
14683W        W56694   3.689  14.454  10.152
14684W        W56695   1.599  13.324   8.682
14685W        W56696   8.919   4.644  15.832
14686W        W56697  12.509   1.724   8.442
14687W        W56698  15.519  11.734  15.592
14688W        W56699  22.729   2.264   0.908
14689W        W56700  11.189  15.364   1.618
14690W        W56701  12.179   4.074  14.942
14691W        W56702   2.509  17.564   3.112
14692W        W56703   4.049  11.074   8.002
14693W        W56704  17.239  21.961  11.182
14694W        W56705   2.559   8.334  14.882
14695W        W56706  17.899   3.664   9.152
14696W        W56707   2.309   9.414   9.142
14697W        W56708  13.959  20.844  11.182
14698W        W56709  12.419   8.244   2.088
14699W        W56710  11.199  21.971  10.772
14700W        W56711  14.669  10.614   0.088
14701W        W56712   0.479  21.911   3.932
14702W        W56713  15.789   7.504   2.118
14703W        W56714  19.939  24.641  10.192
14704W        W56715  12.759  10.754   1.178
14705W        W56716  25.159   7.804   1.128
14706W        W56717   6.219  10.364   1.158
14707W        W56718   5.479  17.034   2.428
14708W        W56719  15.959  17.374  10.022
14709W        W56720  16.629  24.011   9.062
14710W        W56721  11.189   7.704   2.692
14711W        W56722   6.419   3.904  10.432
14712W        W56723   5.519  11.014   2.972
14713W        W56724  23.099  16.574   4.012
14714W        W56725  15.749  17.324   1.808
14715W        W56726  11.809  10.104  13.402
14716W        W56727  20.329   1.744  10.882
14717W        W56728   9.379   6.594   2.358
14718W        W56729   1.009   0.594   7.862
14719W        W56730  10.969  18.324   2.812
14720W        W56731   9.179  20.474   3.742
14721W        W56732  15.299  22.471   9.262
14722W        W56733   3.599   3.984   2.512
14723W        W56734  14.629  15.664   9.832
14724W        W56735  20.289  14.664   4.022
14725W        W56736  22.909   2.964   8.422
14726W        W56737  12.359  24.271   9.362
14727W        W56738  24.259  22.221   1.818
14728W        W56739  12.589  21.441  10.072
14729W        W56740  16.429  16.714   0.338
14730W        W56741  18.339   3.774   1.318
14731W        W56742  16.839  25.411   7.892
14732W        W56743  17.049   4.704   1.688
14733W        W56744   3.099  20.744   0.668
14734W        W56745   1.639  22.781   0.458
14735W        W56746  20.059   4.374  11.232
14736W        W56747   9.279  13.994   9.162
14737W        W56748  13.899   8.014  14.332
14738W        W56749   3.919  23.071   2.118
14739W        W56750   6.109  14.664   2.458
14740W        W56751  18.279  17.804   2.602
14741W        W56752   6.759   7.344   2.642
14742W        W56753   1.289  19.894   0.518
14743W        W56754  24.809  18.044   0.948
14744W        W56755  20.459   5.644   0.328
14745W        W56756  16.809  15.764   8.662
14746W        W56757  21.409   4.794   2.802
14747W        W56758   8.129  15.654   3.422
14748W        W56759  22.349   5.794   9.692
14749W        W56760  15.499  15.314   8.522
14750W        W56761   0.469  23.361   9.762
14751W        W56762  23.079   5.474   8.182
14752W        W56763  11.239  16.474   0.808
14753W        W56764  24.239  18.794  11.332
14754W        W56765  19.949   8.174   9.582
14755W        W56766  12.169   6.324   2.048
14756W        W56767  22.469  24.071   1.758
14757W        W56768  11.779  17.504  14.532
14758W        W56769   3.469   8.484   2.328
14759W        W56770  19.759  13.874   8.132
14760W        W56771  21.689   8.194   7.632
14761W        W56772  24.959  14.094   1.768
14762W        W56773  18.849  12.694   8.352
14763W        W56774  21.449  16.174   8.362
14764W        W56775   6.969  22.801   3.672
14765W        W56776   1.379   9.034  10.252
14766W        W56777  19.739  21.194   9.932
14767W        W56778  23.659   9.074   6.672
14768W        W56779   9.359  15.624   1.068
14769W        W56780  17.939  20.834  10.612
14770W        W56781  11.399  24.001  15.062
14771W        W56782   4.989   5.494  14.992
14772W        W56783   3.199  22.531   2.408
14773W        W56784   9.769   1.624   2.098
14774W        W56785  25.279  19.624  10.062
14775W        W56786  18.559  20.424   8.502
14776W        W56787   3.199  10.034   0.558
14777W        W56788   6.519  11.174  15.082
14778W        W56789   6.739  22.251   8.982
14779W        W56790  15.539  22.741   1.008
14780W        W56791  17.999   3.954   8.232
14781W        W56792  15.879   3.234   3.232
14782W        W56793  16.489  15.064   3.882
14783W        W56794  24.589   4.534   0.948
14784W        W56795   6.789  14.044   1.958
14785W        W56796  22.619  22.271   0.468
14786W        W56797  22.759  17.374  11.342
14787W        W56798   8.069   2.704   9.792
14788W        W56799   1.049   6.704   3.472
14789W        W56800  25.059  13.624   9.392
14790W        W56801  20.019  17.944   7.602
14791W        W56802   9.299  20.694   9.052
14792W        W56803  21.769  18.804   8.762
14793W        W56804  21.909  21.961   9.482
14794W        W56805  16.169   7.054   9.272
14795W        W56806   3.259   7.774   9.232
14796W        W56807   9.709  17.124   0.658
14797W        W56808   6.459   0.444   0.828
14798W        W56809  13.139   3.634  14.702
14799W        W56810  14.129  12.474   3.672
14800W        W56811  10.819  18.884   0.998
14801W        W56812  16.049  23.921   3.302
14802W        W56813  14.349   6.114  10.432
14803W        W56814  25.029   8.484   8.112
14804W        W56815   1.409  20.904  10.312
14805W        W56816  19.389   4.724   2.198
14806W        W56817  19.489  11.794   1.168
14807W        W56818  18.739   7.314   8.492
14808W        W56819   9.529   2.674  11.132
14809W        W56820   5.709  22.771   8.252
14810W        W56821  10.279   5.884   0.268
14811W        W56822  12.909   8.884   3.362
14812W        W56823  25.169   4.854   9.872
14813W        W56824   4.489  13.844   7.452
14814W        W56825  21.649  12.614  10.882
14815W        W56826  15.739  25.331  11.952
14816W        W56827   9.529   1.954  10.102
14817W        W56828  24.569   1.994   8.742
14818W        W56829  13.669   1.394   9.272
14819W        W56830   4.319   6.924   1.808
14820W        W56831   2.039   2.744  14.622
14821W        W56832  20.959  25.321   2.398
14822W        W56833  17.719  16.324  10.572
14823W        W56834   6.629  11.024   0.708
14824W        W56835   1.359  10.754   3.942
14825W        W56836  15.749  24.571   7.242
14826W        W56837  25.359   0.834   2.692
14827W        W56838  25.329   2.504   1.768
14828W        W56839   9.059  21.194   0.428
14829W        W56840  21.219   4.564   9.722
14830W        W56841  17.049   9.104  14.442
14831W        W56842  22.359   0.814   3.182
14832W        W56843   6.829  16.014   2.078
14833W        W56844  24.629  11.474   9.152
14834W        W56845   2.239   8.474   8.752
14835W        W56846  18.599  20.214  11.812
14836W        W56847   0.469  18.944   2.448
14837W        W56848  16.289  19.574   8.602
14838W        W56849  16.619   2.674   3.612
14839W        W56850   0.909   4.054   0.398
14840W        W56851   0.749   2.414   7.922
14841W        W56852   1.749  18.104   3.242
14842W        W56853   4.379  10.414   9.262
14843W        W56854  19.149  16.834   9.922
14844W        W56855  12.439   3.534   2.308
14845W        W56856  15.589  23.761   3.502
14846W        W56857   4.449  22.221   1.158
14847W        W56858   4.699  18.384  15.762
14848W        W56859  23.139   7.944   9.612
14849W        W56860  17.319   0.594  11.172
14850W        W56861  25.449  14.204   0.338
14851W        W56862  14.799  15.524  15.112
14852W        W56863  20.299   3.634   1.128
14853W        W56864  21.579   7.214   7.882
14854W        W56865   2.739   2.044   8.142
14855W        W56866   0.619  12.044   9.832
14856W        W56867   8.879   3.534   1.328
14857W        W56868  22.829  17.004   9.892
14858W        W56869  20.339  16.814   7.702
14859W        W56870  21.689  16.894  10.592
14860W        W56871  18.659  18.094   0.428
14861W        W56872  14.379  21.761   9.262
14862W        W56873   7.299  11.304   2.842
14863W        W56874   0.259  11.474  15.772
14864W        W56875  11.599   8.184   9.612
14865W        W56876  20.709   2.594   3.282
14866W        W56877   8.919  16.644  10.132
14867W        W56878  13.779   9.474   1.028
14868W        W56879   7.659  20.434   9.932
14869W        W56880  12.249  23.001   2.148
14870W        W56881  19.099   4.314   0.928
14871W        W56882   4.139  22.601   1.358
14872W        W56883  16.539  17.724   0.958
14873W        W56884   4.599  22.021   0.198
14874W        W56885  24.979   7.714   8.802
14875W        W56886  24.469  12.964  10.012
14876W        W56887  13.009  11.474   4.782
14877W        W56888  11.219  21.324   8.612
14878W        W56889  23.709  15.294   3.312
14879W        W56890   7.019   6.274   0.368
14880W        W56891  13.219  10.184   8.992
14881W        W56892   6.169  23.151   4.322
14882W        W56893  19.169  17.504   8.022
14883W        W56894  24.319  17.524   1.148
14884W        W56895  17.349   1.774  12.122
14885W        W56896   1.889   0.164   2.682
14886W        W56897   2.829  24.321   4.192
14887W        W56898   7.669  23.201   3.842
14888W        W56899   7.809   9.394   9.772
14889W        W56900   9.569  12.244   9.872
14890W        W56901  25.429  19.634   1.428
14891W        W56902  19.649   4.374   0.788
14892W        W56903  19.499  18.984   8.492
14893W        W56904   0.699  13.344  10.202
14894W        W56905  11.359   2.354   2.268
14895W        W56906   1.319  25.541   8.472
14896W        W56907  17.569   4.934   1.628
14897W        W56908   8.369  21.064   1.488
14898W        W56909   1.769  18.384   1.568
14899W        W56910   2.829  18.994   7.422
14900W        W56911  24.229   8.554   1.818
14901W        W56912   6.479  20.364  15.562
14902W        W56913  17.389  22.611   3.162
14903W        W56914  14.929  15.734  11.422
14904W        W56915  18.389  24.551  11.672
14905W        W56916  16.389   3.944   1.278
14906W        W56917  10.899   6.624   3.332
14907W        W56918   6.389  12.384   9.972
14908W        W56919  19.869   9.444  10.562
14909W        W56920   9.009  18.374   3.802
14910W        W56921  15.839   7.844  10.562
14911W        W56922  13.319  19.594   0.658
14912W        W56923   4.359  22.091   2.582
14913W        W56924  21.279  11.314   8.242
14914W        W56925  10.889   3.814   8.752
14915W        W56926  16.429  23.071   9.812
14916W        W56927   4.729   2.294   0.748
14917W        W56928  14.429  20.754   8.932
14918W        W56929  23.089   1.814   0.258
14919W        W56930  10.249   2.044   1.398
14920W        W56931  10.939   8.784  15.652
14921W        W56932   7.399   7.954   3.762
14922W        W56933   8.189  18.954  10.682
14923W        W56934   7.819   1.824  15.742
14924W        W56935   3.169   3.574  10.532
14925W        W56936   3.339   0.824  15.462
14926W        W56937  15.709  14.084  14.832
14927W        W56938   0.499  22.721   2.298
14928W        W56939   0.069  22.821   0.968
14929W        W56940   2.549   2.274   2.642
14930W        W56941  17.449  24.661  11.612
14931W        W56942  24.789  22.521  10.402
14932W        W56943  16.879  23.321   9.902
14933W        W56944   9.619  23.301  15.112
14934W        W56945   1.209   4.914   0.428
14935W        W56946  21.849   0.004  11.712
14936W        W56947  16.829   6.534   2.782
14937W        W56948  15.169   5.404   8.162
14938W        W56949   9.899  15.914   9.912
14939W        W56950  18.349  16.834   8.422
14940W        W56951   3.399  15.184  15.812
14941W        W56952   1.049  13.354   2.892
14942W        W56953   1.869  13.624   8.222
14943W        W56954   1.949  22.141  10.882
14944W        W56955   6.749   3.754   4.102
14945W        W56956  15.579  13.644   3.062
14946W        W56957   1.749  17.864  10.352
14947W        W56958   2.029  22.431   0.438
14948W        W56959   3.529   5.564  14.982
14949W        W56960   2.399  21.264   7.452
14950W        W56961  11.999  11.784   3.782
14951W        W56962  17.679  16.654   1.988
14952W        W56963  16.529   2.534   9.462
14953W        W56964  23.789   1.074   2.418
14954W        W56965  22.379   8.754   8.612
14955W        W56966  23.519  14.384   0.258
14956W        W56967  12.089   1.714   3.692
14957W        W56968  13.529   1.094   8.382
14958W        W56969   8.149  10.444   8.812
14959W        W56970   5.309   5.244   8.812
14960W        W56971  17.009  19.604   8.132
14961W        W56972  17.629  16.184   8.702
14962W        W56973   2.109  14.194   3.452
14963W        W56974  13.709  15.144   4.072
14964W        W56975  24.939   4.434   2.542
14965W        W56976  19.919   5.484   2.018
14966W        W56977  13.489   2.804   4.532
14967W        W56978  23.149   5.304   7.232
14968W        W56979  15.309  19.454   8.382
14969W        W56980  17.149  15.354   8.702
14970W        W56981  22.569  14.744   2.428
14971W        W56982  17.899  12.224   2.458
14972W        W56983  10.479  14.564   5.002
14973W        W56984  14.679  16.384   3.672
14974W        W56985   8.819  12.414   9.262
14975W        W56986  22.419   6.684   8.462
14976W        W56987  21.309  24.371   1.358
14977W        W56988   0.001  12.614  10.642
14978W        W56989  22.289   8.884   0.888
14979W        W56990   0.509   0.804   7.312
14980W        W56991   8.809  21.511   8.952
14981W        W56992   6.599  20.814   1.958
14982W        W56993  15.319  21.491   0.348
14983W        W56994   5.269  11.944  15.752
14984W        W56995   4.109   2.614  10.592
14985W        W56996  24.209  11.354   8.752
14986W        W56997   1.289  19.804   3.532
14987W        W56998  18.669  23.831   8.362
14988W        W56999  23.499   7.404   8.062
14989W        W57000   7.039  13.174   3.002
14990W        W57001  15.939   0.444   9.362
14991W        W57002  18.719  14.234   2.078
14992W        W57003  20.599  10.604   3.242
14993W        W57004  10.319  16.934   2.762
14994W        W57005  25.469  23.411   9.502
14995W        W57006  11.779  20.464   0.098
14996W        W57007   5.909  18.514   8.632
14997W        W57008   1.329   3.494   7.292
14998W        W57009  18.739  15.724  11.322
14999W        W57010  13.149   5.114  15.032
15000W        W57011   7.779  15.094  10.862
15001W        W57012  21.219  18.404   0.298
15002W        W57013   9.999  20.344   3.192
15003W        W57014  24.409  21.264  15.382
15004W        W57015  21.979  12.844   3.142
15005W        W57016  16.879   1.344   2.368
15006W        W57017   1.069   5.624  11.552
15007W        W57018  19.529  19.554   8.332
15008W        W57019  23.699   9.584   2.468
15009W        W57020  19.149  22.321  11.002
15010W        W57021  14.889  20.574  10.752
15011W        W57022   3.479  12.144   3.272
15012W        W57023   3.869   5.564   7.312
15013W        W57024  22.589   9.714   0.098
15014W        W57025  17.479   0.054  10.862
15015W        W57026  18.489  16.694   0.638
15016W        W57027   8.689  20.084   2.048
15017W        W57028  22.219   1.874  10.732
15018W        W57029   7.679  15.584   3.662
15019W        W57030   7.889  14.304   1.338
15020W        W57031  11.059   9.064   9.442
15021W        W57032   2.969  23.691   7.372
15022W        W57033  15.519  19.504   0.708
15023W        W57034  23.289   0.364  10.662
15024W        W57035  15.789  13.794   8.732
15025W        W57036  22.359  15.854   7.012
15026W        W57037   0.299  22.871   9.242
15027W        W57038   1.739  17.804   3.712
15028W        W57039   0.089  16.224   9.972
15029W        W57040   3.729   7.794  10.732
15030W        W57041   7.539   3.284   2.572
15031W        W57042   2.049  12.694  10.402
15032W        W57043  17.709  22.221   1.938
15033W        W57044   1.069   2.854   9.462
15034W        W57045   5.379  10.504  15.392
15035W        W57046  10.989   6.734   1.258
15036W        W57047  11.249   9.534   3.312
15037W        W57048  14.639  14.294  10.112
15038W        W57049  17.199  22.711   7.902
15039W        W57050  10.989   4.044   2.952
15040W        W57051  12.889  10.164   3.682
15041W        W57052  22.449  11.654   9.072
15042W        W57053  11.779   3.944  10.272
15043W        W57054   9.969   1.394   3.072
15044W        W57055  14.139   1.274   0.318
15045W        W57056  20.849  13.434  15.792
15046W        W57057  13.079   1.254   8.522
15047W        W57058   5.959  23.561   8.142
15048W        W57059  10.909   1.334   3.232
15049W        W57060  11.399  12.174   4.092
15050W        W57061  22.929  16.584  11.232
15051W        W57062   8.929  22.101   1.378
15052W        W57063   3.389  19.034   8.722
15053W        W57064   7.409   0.424   2.298
15054W        W57065   8.869   7.924  10.092
15055W        W57066  21.549  24.631   2.098
15056W        W57067  20.789  13.024   0.398
15057W        W57068   3.159   4.994   7.572
15058W        W57069   0.419  17.004   3.532
15059W        W57070  15.459  25.161   0.088
15060W        W57071  12.979   3.034   2.662
15061W        W57072  12.219  18.314  14.402
15062W        W57073  24.159   2.454   8.022
15063W        W57074  18.159  15.874  15.432
15064W        W57075   2.229  14.574   7.302
15065W        W57076  16.769  15.334   1.468
15066W        W57077   7.419  17.724  15.162
15067W        W57078   9.489   9.504  14.892
15068W        W57079   4.939   2.604  10.892
15069W        W57080  16.139   5.624   4.812
15070W        W57081   9.519  12.764   1.858
15071W        W57082  11.949  23.381   9.592
15072W        W57083   3.259  23.611   9.022
15073W        W57084  11.269  13.754   0.058
15074W        W57085  17.849  17.424   0.438
15075W        W57086  24.059   3.014  15.742
15076W        W57087   9.669  21.314   8.632
15077W        W57088  24.119   2.154   8.992
15078W        W57089  24.209   8.774   9.162
15079W        W57090  15.399   3.804  15.682
15080W        W57091   1.179   0.684   8.572
15081W        W57092  20.809   4.994  11.032
15082W        W57093  11.059  16.684   1.618
15083W        W57094  15.369  15.244   1.238
15084W        W57095   6.819  12.804   8.742
15085W        W57096  14.629  12.484   9.152
15086W        W57097   2.159  11.074   8.372
15087W        W57098  22.139  12.984  15.162
15088W        W57099  19.609   6.754   9.112
15089W        W57100  21.029  17.204   9.742
15090W        W57101  24.559   4.304   9.662
15091W        W57102  19.069  18.934   8.242
15092W        W57103  13.409  16.634  15.252
15093W        W57104  21.049   0.374   8.682
15094W        W57105   0.499  18.814   0.088
15095W        W57106  19.849   5.104   3.602
15096W        W57107  24.829  14.314  15.382
15097W        W57108   4.299  10.484  15.382
15098W        W57109   1.819  20.974   9.242
15099W        W57110   2.899  24.961   2.008
15100W        W57111  19.889   2.834   0.148
15101W        W57112   8.729   9.634   3.162
15102W        W57113  20.049  13.174   2.208
15103W        W57114  12.519  17.514   2.218
15104W        W57115   5.859  18.834   0.388
15105W        W57116  20.629   9.734   0.498
15106W        W57117  11.989   9.594   1.058
15107W        W57118   1.619  24.181   2.952
15108W        W57119   1.079  17.864  12.242
15109W        W57120  15.199  13.844  15.782
15110W        W57121   3.249  11.484   9.422
15111W        W57122  20.519  20.394   9.452
15112W        W57123   3.589  23.801   2.438
15113W        W57124   8.199   2.134   1.528
15114W        W57125  13.479  16.174   2.682
15115W        W57126   9.869  24.281   2.278
15116W        W57127  22.749  24.161   1.298
15117W        W57128  21.779  25.561   3.082
15118W        W57129   6.419  19.254  15.472
15119W        W57130  11.769   2.394  14.552
15120W        W57131   7.039  25.181   3.982
15121W        W57132  20.099  13.634   0.168
15122W        W57133   2.989   8.514   1.518
15123W        W57134  13.799  25.191   3.002
15124W        W57135  12.529   0.484   0.348
15125W        W57136  18.389   4.764  10.292
15126W        W57137  19.829  12.124  14.912
15127W        W57138  25.299  21.401  10.982
15128W        W57139  11.119  24.381   9.922
15129W        W57140  21.069  19.284  11.422
15130W        W57141  14.979   0.674   1.988
15131W        W57142  16.059   4.854   0.358
15132W        W57143  10.819  20.594   4.242
15133W        W57144   8.609  25.201   7.782
15134W        W57145  11.799   0.924  14.222
15135W        W57146  13.079  22.111   9.522
15136W        W57147  21.469  20.224   7.442
15137W        W57148  20.969   6.494   6.722
15138W        W57149  13.509  23.111   1.828
15139W        W57150   5.799   9.114   1.578
15140W        W57151   5.919   6.404   3.002
15141W        W57152   1.819  15.064   0.918
15142W        W57153  21.439   1.994   3.422
15143W        W57154  18.929   4.724   9.442
15144W        W57155  22.139  15.904  15.482
15145W        W57156   5.229   4.774   1.598
15146W        W57157   6.169  23.051   7.482
15147W        W57158   2.059  13.304   3.912
15148W        W57159   1.059   1.694  10.022
15149W        W57160   2.609  18.014   1.528
15150W        W57161   8.579  23.221   1.738
15151W        W57162  11.089  21.401   1.678
15152W        W57163  13.529  10.114  10.792
15153W        W57164  24.389  24.541   0.918
15154W        W57165  18.999   9.994   2.662
15155W        W57166  23.969   0.294  12.062
15156W        W57167   0.299  13.724   9.002
15157W        W57168  16.399  23.131   0.908
15158W        W57169  17.839   7.834   4.492
15159W        W57170  21.889  20.474   3.102
15160W        W57171  20.189  18.164   1.718
15161W        W57172  11.399   5.284   0.068
15162W        W57173   3.249  24.071   8.152
15163W        W57174  17.939   0.014   1.828
15164W        W57175   1.569  19.304   2.328
15165W        W57176  15.199  14.964   2.572
15166W        W57177  18.889   9.784  14.932
15167W        W57178  14.699  19.264   2.328
15168W        W57179   1.209   2.014   2.532
15169W        W57180  22.029   6.734   8.152
15170W        W57181  15.479   0.524  10.672
15171W        W57182  14.069  24.501   2.562
15172W        W57183   7.769  17.684   9.832
15173W        W57184   3.829   2.684   3.562
15174W        W57185  13.199   5.554  14.762
15175W        W57186   1.949  13.164   8.182
15176W        W57187  10.099  11.654   0.238
15177W        W57188  14.509   4.994   2.068
15178W        W57189  17.679   4.104   3.492
15179W        W57190   7.419   8.874   8.402
15180W        W57191  14.589   8.854   1.918
15181W        W57192  20.939   1.574   0.938
15182W        W57193   0.839   9.314  10.842
15183W        W57194   0.799  13.124   4.192
15184W        W57195  19.919  15.934  10.672
15185W        W57196   6.989   0.644  10.382
15186W        W57197   1.679   5.234   2.078
15187W        W57198   2.199  13.114   0.168
15188W        W57199  23.639  16.314   2.542
15189W        W57200  24.799   9.824   9.812
15190W        W57201   4.819   3.874   1.618
15191W        W57202  19.969  18.954   8.722
15192W        W57203  11.519  20.274   3.252
15193W        W57204  19.889  10.794   8.932
15194W        W57205   0.159  12.294   1.098
15195W        W57206  23.299  13.074   9.262
15196W        W57207  19.599  23.551   1.818
15197W        W57208   4.619   6.134   0.958
15198W        W57209   3.769  23.661  10.152
15199W        W57210  23.899  18.794   9.992
15200W        W57211  24.069   9.614  11.042
15201W        W57212  20.689   0.804   9.902
15202W        W57213  21.779  21.034  10.992
15203W        W57214  16.899  18.304  11.512
15204W        W57215  20.479   3.944  11.222
15205W        W57216   3.449   7.794   9.792
15206W        W57217  18.849  13.474  15.442
15207W        W57218  18.759  12.364  10.382
15208W        W57219  23.659   0.064   1.648
15209W        W57220  15.779  13.494   4.752
15210W        W57221   9.549  13.494  10.132
15211W        W57222   1.609   8.024   6.512
15212W        W57223  17.629  15.904   2.428
15213W        W57224   5.719  20.114   9.452
15214W        W57225   1.969  23.031   8.092
15215W        W57226   3.079   3.264   0.058
15216W        W57227  15.199  16.874  10.462
15217W        W57228  13.209   6.204   4.072
15218W        W57229   0.439  14.034  10.802
15219W        W57230   7.479  12.834  10.442
15220W        W57231  24.639  24.171   0.628
15221W        W57232  13.839  15.224   8.332
15222W        W57233  22.889  10.784  11.092
15223W        W57234  22.799   1.424  10.452
15224W        W57235  22.179  10.384   9.512
15225W        W57236  25.189  18.804   2.952
15226W        W57237   3.789   9.664   9.582
15227W        W57238   1.299   0.574   9.802
15228W        W57239  11.009   3.214   9.432
15229W        W57240   4.749  21.891   9.922
15230W        W57241  25.009   9.194   9.442
15231W        W57242  14.539  20.754   0.938
15232W        W57243  22.879   0.294   2.782
15233W        W57244  20.269   8.784   1.438
15234W        W57245   1.389   7.984  15.732
15235W        W57246   4.089   3.594  10.372
15236W        W57247   9.969   7.084  14.682
15237W        W57248   0.031  15.414   1.568
15238W        W57249  21.639  23.511  10.382
15239W        W57250  17.099   0.634   9.502
15240W        W57251   3.419  16.144   2.168
15241W        W57252   7.729   2.514   0.478
15242W        W57253  19.559   4.844   1.018
15243W        W57254   8.399  14.324   9.522
15244W        W57255   2.019  13.474   0.708
15245W        W57256   4.779   4.504   0.228
15246W        W57257  18.139  23.191   9.892
15247W        W57258   3.719   0.474   2.128
15248W        W57259   4.609   5.694   9.392
15249W        W57260  16.619  10.964   1.758
15250W        W57261   3.789   7.344   9.482
15251W        W57262  16.289  17.294   2.672
15252W        W57263  10.989   8.044   4.402
15253W        W57264  25.089  21.254   8.152
15254W        W57265  20.909  14.874   9.622
15255W        W57266  16.129   5.074   0.888
15256W        W57267   3.839  23.741  10.952
15257W        W57268  16.199  16.064   2.248
15258W        W57269  16.849  14.664   0.348
15259W        W57270  21.999  10.824   9.212
15260W        W57271   0.799  24.821   2.632
15261W        W57272   1.099  18.814   8.222
15262W        W57273  11.509   3.634  13.982
15263W        W57274   7.939   9.074   8.482
15264W        W57275  16.659  22.111   1.558
15265W        W57276   2.049  18.774   9.922
15266W        W57277  15.419  11.264   4.392
15267W        W57278  20.939   4.074   2.158
15268W        W57279  24.679  15.434   3.742
15269W        W57280  25.299  23.921  15.322
15270W        W57281  23.059   5.574   9.162
15271W        W57282  17.239  13.474  15.632
15272W        W57283  14.939  13.474   9.892
15273W        W57284  25.029  20.714   8.952
15274W        W57285  13.569  13.634   2.308
15275W        W57286  16.359   4.744  10.892
15276W        W57287   7.299   3.454   9.802
15277W        W57288   1.979   3.754   1.638
15278W        W57289  14.199   7.174   4.332
15279W        W57290  11.219  19.674   9.302
15280W        W57291  25.299  25.071  11.572
15281W        W57292   3.499   1.604  10.402
15282W        W57293   7.569   9.404   8.302
15283W        W57294  21.559   5.914   1.328
15284W        W57295  10.939   3.534   3.012
15285W        W57296   3.189   4.024   0.748
15286W        W57297  22.239  13.554  10.912
15287W        W57298  23.599  10.284  10.072
15288W        W57299  23.879   9.824   9.922
15289W        W57300  10.139  12.634   8.062
15290W        W57301  11.409  13.974   5.242
15291W        W57302  16.319  21.661   9.392
15292W        W57303  16.839   5.184  10.042
15293W        W57304  12.539   3.164   9.092
15294W        W57305  22.689   2.344  12.562
15295W        W57306   7.439   3.824  15.812
15296W        W57307  18.449   9.804   4.022
15297W        W57308   2.089   6.124  15.772
15298W        W57309  22.689  14.074   3.182
15299W        W57310   3.019   8.854   1.928
15300W        W57311  24.849  20.194   9.162
15301W        W57312  24.199  20.884   0.878
15302W        W57313   3.739   6.824   8.262
15303W        W57314   6.529  21.681   3.242
15304W        W57315  14.889  21.314   3.142
15305W        W57316  11.819  22.211  10.962
15306W        W57317  19.369  10.444   3.292
15307W        W57318   4.999  17.184   4.332
15308W        W57319  16.869   7.554   2.488
15309W        W57320  19.649  18.844   0.228
15310W        W57321   8.099   5.424  15.752
15311W        W57322  23.679  19.754   1.698
15312W        W57323  17.519  14.614  15.792
15313W        W57324   0.669  15.024   7.612
15314W        W57325  21.579   6.834   0.108
15315W        W57326  21.399  16.304   3.212
15316W        W57327   1.139  22.661   6.912
15317W        W57328   1.659   1.224   0.698
15318W        W57329  15.029  16.974   3.142
15319W        W57330  21.639   6.384   1.578
15320W        W57331   1.189   3.154   0.278
15321W        W57332  14.039   6.654   4.032
15322W        W57333   4.419  19.604   4.092
15323W        W57334   7.979  24.831   8.062
15324W        W57335  23.469   5.234   7.922
15325W        W57336   5.429  20.674   2.792
15326W        W57337  15.879  11.244   3.212
15327W        W57338  14.609   5.594   9.172
15328W        W57339  21.949  11.004  11.172
15329W        W57340  25.309  19.494  11.422
15330W        W57341   3.039   0.684  10.322
15331W        W57342  15.629   7.314  10.652
15332W        W57343   0.729  23.301   0.118
15333W        W57344   1.079  24.171   8.692
15334W        W57345  20.359   2.804   9.472
15335W        W57346  19.279  16.014   2.478
15336W        W57347   1.299  12.364  15.782
15337W        W57348  14.419  22.751   4.372
15338W        W57349  22.429   4.594   0.988
15339W        W57350   3.189  16.714   2.018
15340W        W57351  14.879  18.164   0.458
15341W        W57352  18.949  20.484   2.822
15342W        W57353  18.329   6.354  15.502
15343W        W57354  13.549   7.594  15.262
15344W        W57355  19.489  21.551   4.372
15345W        W57356   2.209  15.484   2.328
15346W        W57357  11.319   4.804   3.242
15347W        W57358   6.059  14.994   8.872
15348W        W57359  24.589  18.724   1.978
15349W        W57360  25.069  21.601   9.702
15350W        W57361  13.189  22.531  11.592
15351W        W57362   9.889  14.054   3.762
15352W        W57363   4.729   8.774   3.012
15353W        W57364  21.109   9.924   0.508
15354W        W57365   4.209   1.984   7.992
15355W        W57366   4.769  24.791   9.982
15356W        W57367   2.149  15.884   2.702
15357W        W57368  25.109  21.501   4.522
15358W        W57369   2.929   2.454   9.402
15359W        W57370   9.559  25.511   9.072
15360W        W57371  21.859  10.314   7.962
15361W        W57372   5.599  12.084   7.902
15362W        W57373  15.329   5.244   3.612
15363W        W57374   4.239   3.914   8.322
15364W        W57375  23.939  18.234   9.232
15365W        W57376  16.739   1.754  10.102
15366W        W57377   8.389  23.811   3.472
15367W        W57378   0.949   9.284   7.692
15368W        W57379   6.309   3.724   8.002
15369W        W57380  23.759   9.614  11.442
15370W        W57381  23.829  20.224  10.072
15371W        W57382   5.439  20.724  11.332
15372W        W57383   1.969  11.404  11.692
15373W        W57384   2.799  23.561   9.042
15374W        W57385  21.609   5.884  10.352
15375W        W57386  24.289  23.291  10.222
15376W        W57387  25.319  10.014  10.782
15377W        W57388  15.359  25.031   3.812
15378W        W57389   6.079  18.054   9.102
15379W        W57390   0.399   8.194   0.288
15380W        W57391  19.409  24.311   1.708
15381W        W57392   2.929   1.384   2.532
15382W        W57393  23.829  15.554   8.742
15383W        W57394   3.759  14.714   8.592
15384W        W57395  20.429   6.674   9.062
15385W        W57396  15.299  10.654   4.422
15386W        W57397  13.849   4.754   2.478
15387W        W57398   7.199  24.851   3.582
15388W        W57399   0.349  24.061   1.318
15389W        W57400   7.929  21.451   4.102
15390W        W57401  10.479  20.674   0.198
15391W        W57402  21.119  23.321   3.902
15392W        W57403   6.939  11.154   2.018
15393W        W57404   9.569  15.814  15.472
15394W        W57405   1.549   4.494   8.102
15395W        W57406  14.279   6.064  10.932
15396W        W57407  25.279   2.224   2.562
15397W        W57408  19.159  24.801   7.752
15398W        W57409  10.119   8.704  14.562
15399W        W57410   1.639  10.404   1.988
15400W        W57411  23.139   6.214   2.298
15401W        W57412  22.559  19.724   9.362
15402W        W57413  15.099  12.224   2.318
15403W        W57414  10.539   1.304   0.798
15404W        W57415   5.139  16.744   9.052
15405W        W57416  14.419  11.004   1.698
15406W        W57417  23.569   3.504  10.712
15407W        W57418   3.529   5.374   7.752
15408W        W57419   5.389   1.804   2.852
15409W        W57420  20.279  12.104   8.282
15410W        W57421  20.819  24.221   3.552
15411W        W57422   1.739   1.154  10.462
15412W        W57423  17.269   0.344  11.622
15413W        W57424   8.779  17.454   2.048
15414W        W57425  11.029  23.641   1.488
15415W        W57426   3.179  10.544   3.782
15416W        W57427  17.329  16.214   9.182
15417W        W57428   8.049  10.474   0.018
15418W        W57429  19.109  14.444   9.322
15419W        W57430  18.319   1.554   8.592
15420W        W57431  13.419   0.514   2.732
15421W        W57432  18.829  17.864   0.938
15422W        W57433  15.419  11.014   3.932
15423W        W57434   6.089   1.194   0.288
15424W        W57435   1.639  18.434   2.782
15425W        W57436   5.359   4.074  10.572
15426W        W57437  16.439  21.601  11.522
15427W        W57438  18.889   2.274  12.242
15428W        W57439   6.449  10.994   8.972
15429W        W57440  20.059  21.094   2.752
15430W        W57441   9.689  20.984   2.692
15431W        W57442  17.869  10.524   1.428
15432W        W57443  13.359   1.504   0.168
15433W        W57444   1.539   3.184  10.802
15434W        W57445  20.989  24.011  10.052
15435W        W57446  22.019   1.364  10.852
15436W        W57447   8.929  21.304  10.432
15437W        W57448  25.359  23.371   7.752
15438W        W57449  23.899   9.084   8.872
15439W        W57450   6.909  15.084   8.552
15440W        W57451   8.029   7.624   0.988
15441W        W57452  12.399   4.274  10.472
15442W        W57453  10.769   7.724   1.568
15443W        W57454  18.299   9.304   3.102
15444W        W57455   4.609   3.034   2.248
15445W        W57456   5.799   7.754  15.592
15446W        W57457  21.339  23.421   1.718
15447W        W57458  23.759   3.164   2.652
15448W        W57459   0.489  18.184   9.282
15449W        W57460   3.649  11.564  10.832
15450W        W57461  24.369  18.214  10.412
15451W        W57462  10.279  16.504  15.292
15452W        W57463   2.149  20.774   1.698
15453W        W57464  23.849  20.314   1.988
15454W        W57465   9.029  13.274  10.212
15455W        W57466  10.469   5.884  15.212
15456W        W57467   0.069  14.364  10.962
15457W        W57468  24.989   6.784   9.192
15458W        W57469   8.149  24.721  15.432
15459W        W57470  19.339   4.164   0.008
15460W        W57471   2.809   4.494   0.698
15461W        W57472  19.439  13.704   0.878
15462W        W57473   5.099   5.914   2.438
15463W        W57474  23.499  22.431   8.692
15464W        W57475  21.799  23.241   0.248
15465W        W57476  13.889   6.904  15.462
15466W        W57477   5.519   3.914   2.552
15467W        W57478   6.619  23.421   0.128
15468W        W57479   9.139  17.984  15.532
15469W        W57480   4.159   8.894  12.152
15470W        W57481  18.779  14.724   1.578
15471W        W57482  15.849   5.144  10.672
15472W        W57483  22.229  23.641   9.352
15473W        W57484   6.529   7.284   0.668
15474W        W57485  19.059  24.821  12.132
15475W        W57486   5.219  14.864   1.468
15476W        W57487  15.699   1.544   8.652
15477W        W57488   0.369   6.214  11.082
15478W        W57489  10.869   5.204  15.262
15479W        W57490  18.109   1.954   0.358
15480W        W57491  22.229  18.954   8.422
15481W        W57492   9.139  15.874   9.722
15482W        W57493  22.249  14.734   7.752
15483W        W57494  17.419  22.931   0.658
15484W        W57495  13.289  13.884   0.368
15485W        W57496   6.329   0.344  11.052
15486W        W57497  16.559   3.574  10.242
15487W        W57498  16.519  10.874  15.392
15488W        W57499  19.719  17.554   0.878
15489W        W57500  15.259   2.864   3.982
15490W        W57501  13.149   1.324  10.672
15491W        W57502   6.509  17.634   8.562
15492W        W57503   3.729   2.984  10.882
15493W        W57504  11.299  21.521   2.328
15494W        W57505  11.529  21.401   1.478
15495W        W57506   8.429  23.871  10.182
15496W        W57507  23.759  13.894   7.912
15497W        W57508  22.529  15.464   3.942
15498W        W57509  17.469   7.444   8.532
15499W        W57510  22.749   0.104   8.612
15500W        W57511  19.029   2.474  15.782
15501W        W57512  12.229  23.671   8.902
15502W        W57513  15.289  20.184   8.552
15503W        W57514  15.179  23.151  12.012
15504W        W57515  12.309   7.544  10.082
15505W        W57516  11.429  11.394   9.602
15506W        W57517   7.579  11.104   9.552
15507W        W57518   3.719   1.654   7.972
15508W        W57519   7.269  10.704   8.502
15509W        W57520   8.979   1.334   0.078
15510W        W57521  22.289  12.334  15.802
15511W        W57522   9.559   9.374  15.392
15512W        W57523   9.109  18.734   8.952
15513W        W57524  15.699  17.034  12.022
15514W        W57525  21.259  18.344  12.042
15515W        W57526   2.439   8.944   1.728
15516W        W57527  23.899  24.601   0.818
15517W        W57528   4.759   7.704   0.538
15518W        W57529  19.139  25.541   8.522
15519W        W57530   4.509  11.934  15.202
15520W        W57531   0.709   7.634   9.972
15521W        W57532   3.799  21.721  15.762
15522W        W57533   7.129  23.561   0.268
15523W        W57534  11.209  19.104   3.192
15524W        W57535  10.619  14.014   2.338
15525W        W57536   1.809   9.164  15.812
15526W        W57537  10.449  16.574   0.258
15527W        W57538  21.589  23.231   3.492
15528W        W57539  11.879   1.864   9.502
15529W        W57540   0.749  15.274  12.502
15530W        W57541   5.969   9.744   8.022
15531W        W57542  17.739  22.131  10.492
15532W        W57543  10.689  19.774   0.548
15533W        W57544   0.829  24.871   3.182
15534W        W57545   4.969  23.461   3.272
15535W        W57546   2.619  13.734   9.762
15536W        W57547  22.999   6.334   0.518
15537W        W57548  13.959   0.924   3.792
15538W        W57549  10.969   9.754   2.238
15539W        W57550  19.199   4.274   8.422
15540W        W57551   6.609  25.551  10.892
15541W        W57552   7.139  23.631  11.862
15542W        W57553   9.229  19.674  10.502
15543W        W57554   8.209  22.631   2.308
15544W        W57555   4.169  20.564   8.452
15545W        W57556  14.179  11.114  15.852
15546W        W57557   6.599   7.934  14.492
15547W        W57558  25.419  18.674   8.652
15548W        W57559  23.749  24.541   3.562
15549W        W57560   1.759  22.031   0.078
15550W        W57561  21.809  11.484   9.982
15551W        W57562   6.489   6.964   1.928
15552W        W57563   6.469   9.214   0.198
15553W        W57564   6.649   3.044   0.868
15554W        W57565  19.419   2.574  10.642
15555W        W57566   9.339   7.224   0.768
15556W        W57567   0.489  25.051   9.672
15557W        W57568  12.669  10.244   2.692
15558W        W57569   2.939  10.414   2.672
15559W        W57570   5.269   1.444   2.522
15560W        W57571  22.689   5.784   8.432
15561W        W57572  17.479   1.024   1.548
15562W        W57573  21.499   0.294   3.642
15563W        W57574   4.929  12.554  10.842
15564W        W57575   2.459  13.204   0.588
15565W        W57576   3.939  22.441   8.952
15566W        W57577   3.809   5.804   9.332
15567W        W57578  24.319  14.394   8.412
15568W        W57579   1.069  24.271   0.908
15569W        W57580   3.299   0.924   7.692
15570W        W57581  19.359  23.931   8.882
15571W        W57582  23.989  14.414   2.722
15572W        W57583   3.419  11.574   9.912
15573W        W57584  24.739  13.764   0.888
15574W        W57585  19.099  22.601  10.002
15575W        W57586  12.799   8.404   5.032
15576W        W57587  14.749   6.454   7.952
15577W        W57588   4.919   9.124   2.562
15578W        W57589  18.949  10.414   3.062
15579W        W57590  17.019   6.174   2.468
15580W        W57591  17.629  21.511   8.922
15581W        W57592  10.049  11.884   3.432
15582W        W57593   3.219   1.434  15.052
15583W        W57594  25.129   4.294   7.552
15584W        W57595  13.669   5.604   8.732
15585W        W57596   6.469  14.554   0.068
15586W        W57597   1.549  11.614   1.598
15587W        W57598  20.429  19.694   1.418
15588W        W57599  17.899   5.994   0.908
15589W        W57600  18.659  20.324   2.418
15590W        W57601   9.969  16.054   8.762
15591W        W57602   5.829   4.674  15.232
15592W        W57603   1.239  24.751   0.188
15593W        W57604   5.049   8.444   0.668
15594W        W57605   1.279   9.554   2.532
15595W        W57606  20.919   0.044  11.682
15596W        W57607   4.629  23.741   2.278
15597W        W57608   8.609   9.324   9.392
15598W        W57609   0.011   9.184   7.882
15599W        W57610   2.959  12.204   2.138
15600W        W57611  16.259  18.054   0.628
15601W        W57612  21.639  25.451   1.638
15602W        W57613   1.069   4.294   2.652
15603W        W57614  20.529  24.941   2.288
15604W        W57615  17.229   3.424   0.368
15605W        W57616  15.769  13.044   1.538
15606W        W57617  23.799  14.694   7.152
15607W        W57618  25.449  16.324  11.252
15608W        W57619   9.199   4.554   1.018
15609W        W57620  15.709   8.894   3.312
15610W        W57621  10.859  22.321   2.358
15611W        W57622  24.729  18.604  11.242
15612W        W57623   1.459   7.964   1.198
15613W        W57624  12.489  11.074   0.628
15614W        W57625   9.069  25.141   2.922
15615W        W57626   8.279   1.794   8.342
15616W        W57627   2.239   1.484   9.512
15617W        W57628  18.869  20.764  10.872
15618W        W57629  15.199   7.874   1.498
15619W        W57630  19.509  10.274   8.312
15620W        W57631  11.509   0.604   3.782
15621W        W57632  12.409  25.481  14.802
15622W        W57633  15.219  13.224  14.902
15623W        W57634  10.309   8.484   1.648
15624W        W57635   2.329   1.374   8.632
15625W        W57636   4.669   5.834   0.458
15626W        W57637   2.139  14.534   0.308
15627W        W57638  11.889  15.464   0.308
15628W        W57639   4.989   8.054   8.542
15629W        W57640  10.449  12.854   0.018
15630W        W57641  10.709  17.734   2.832
15631W        W57642  11.499   1.534  10.382
15632W        W57643  11.899  10.734   2.822
15633W        W57644  10.599  18.584   8.922
15634W        W57645  14.539  12.864   0.158
15635W        W57646  23.629   5.454   7.492
15636W        W57647  12.169  22.521   2.592
15637W        W57648   9.989  19.544   8.512
15638W        W57649  17.859  22.151   8.382
15639W        W57650  16.959  23.101  10.812
15640W        W57651  14.509  16.004   3.262
15641W        W57652  11.429  20.264   2.498
15642W        W57653  24.119   4.594   2.642
15643W        W57654   5.659   1.424   2.008
15644W        W57655  14.089   0.654  10.132
15645W        W57656  18.969   2.764   1.628
15646W        W57657   9.439  11.404   0.168
15647W        W57658  23.279  15.974   2.622
15648W        W57659  22.819  20.684  10.272
15649W        W57660  20.719  19.434  11.712
15650W        W57661  14.359  13.744   0.658
15651W        W57662  12.969  17.784  10.022
15652W        W57663   4.849   3.624   9.422
15653W        W57664  19.329   4.634   9.972
15654W        W57665  18.299   7.884  10.062
15655W        W57666   3.889  10.114   1.038
15656W        W57667   1.949  16.324   8.832
15657W        W57668  15.479  19.424   9.832
15658W        W57669  13.389  10.174   4.382
15659W        W57670   8.359  23.421   8.882
15660W        W57671  20.809   1.314  10.272
15661W        W57672  20.009  24.421   8.172
15662W        W57673   3.699  21.811   0.608
15663W        W57674   7.519  21.581   3.352
15664W        W57675   0.549   9.824   7.872
15665W        W57676  21.989  10.354   1.048
15666W        W57677   7.629   0.314  15.332
15667W        W57678  25.439   2.264   0.138
15668W        W57679  21.669  20.094   0.318
15669W        W57680  22.419  20.404  10.522
15670W        W57681  13.659  24.821   8.582
15671W        W57682  10.889   4.814   0.218
15672W        W57683  14.069  18.374   9.672
15673W        W57684   2.389   2.754   8.632
15674W        W57685   0.909  19.494  15.472
15675W        W57686  11.729   6.114   1.328
15676W        W57687  10.089  21.354  10.362
15677W        W57688   0.079  12.404   1.768
15678W        W57689   6.939   5.124  10.032
15679W        W57690  21.569  22.531   2.582
15680W        W57691   5.799   9.484  10.692
15681W        W57692  20.069  14.004  10.242
15682W        W57693   2.989  20.034  15.342
15683W        W57694   0.959   6.434   9.522
15684W        W57695  17.169  13.494   0.238
15685W        W57696   9.599  11.344  11.092
15686W        W57697  12.479  18.014  14.812
15687W        W57698  22.019  21.951   8.952
15688W        W57699   5.449   5.174   0.408
15689W        W57700   0.919  23.651  10.412
15690W        W57701  23.329  20.304  11.492
15691W        W57702   6.839  24.411  10.112
15692W        W57703   6.809   2.904   7.842
15693W        W57704  13.739  20.504   2.348
15694W        W57705  22.909  13.154   2.582
15695W        W57706   9.159   7.054   3.682
15696W        W57707  16.909  10.354   1.148
15697W        W57708  20.739   6.564   3.262
15698W        W57709   4.729  13.624  15.222
15699W        W57710  18.399   9.764  10.662
15700W        W57711  19.239   5.094   9.662
15701W        W57712  19.389  11.254   1.128
15702W        W57713   5.439   8.144   2.612
15703W        W57714  24.589   1.364   8.442
15704W        W57715  24.809   5.344  15.792
15705W        W57716  21.289  11.874   7.822
15706W        W57717   7.639  16.984   1.588
15707W        W57718   8.849  24.011   0.768
15708W        W57719  22.369   8.844  10.472
15709W        W57720  23.949  12.854   2.912
15710W        W57721   9.929   2.904   0.048
15711W        W57722  13.419   0.634   8.502
15712W        W57723  19.709   5.684  15.432
15713W        W57724  18.489  17.904  12.012
15714W        W57725  17.979   5.804   1.448
15715W        W57726   5.749  17.584   1.108
15716W        W57727   2.359   2.854   1.948
15717W        W57728   2.669   3.794  11.372
15718W        W57729   6.209  21.501   2.822
15719W        W57730   4.849  11.834   2.308
15720W        W57731  13.399  12.214   1.558
15721W        W57732  14.199  20.274   2.128
15722W        W57733   4.739  23.781   0.898
15723W        W57734  24.339  24.781   9.472
15724W        W57735  22.539  17.564  10.042
15725W        W57736   0.419  14.894   8.052
15726W        W57737   9.749   6.594   0.088
15727W        W57738  21.499  18.964  10.422
15728W        W57739   6.959   3.174   2.498
15729W        W57740   4.869   7.064   1.858
15730W        W57741   7.639   7.204   2.368
15731W        W57742  24.219   0.914  11.472
15732W        W57743  15.679  10.294   3.532
15733W        W57744  18.539  22.011   1.658
15734W        W57745  16.729  17.054  10.212
15735W        W57746   7.079   6.974   2.478
15736W        W57747   0.359   5.354   8.842
15737W        W57748  15.509  21.074  10.212
15738W        W57749  22.279   2.394  10.662
15739W        W57750   4.569   2.264  11.102
15740W        W57751  13.129   0.924   0.768
15741W        W57752  18.939   2.994  15.682
15742W        W57753  11.879  10.464   0.818
15743W        W57754   1.269  24.841   9.162
15744W        W57755   9.449   3.064   1.918
15745W        W57756   4.129  15.684  11.132
15746W        W57757   1.809   6.374   2.038
15747W        W57758  12.329  10.944   3.012
15748W        W57759  14.889   8.204   8.632
15749W        W57760  14.439  16.404   2.842
15750W        W57761  20.479   1.234   3.512
15751W        W57762  21.709   6.404   2.622
15752W        W57763  16.819  24.131   3.832
15753W        W57764  22.269  16.224  11.082
15754W        W57765   2.209   9.234   2.158
15755W        W57766   6.559  14.354   2.368
15756W        W57767  18.419  11.614   2.652
15757W        W57768  11.769  12.204  14.392
15758W        W57769  23.079  14.604  11.632
15759W        W57770  16.739  10.034   0.758
15760W        W57771  16.109  14.194   1.858
15761W        W57772  18.229   1.234  10.792
15762W        W57773   6.419   0.244   9.992
15763W        W57774   9.329  20.704   1.448
15764W        W57775  15.419  15.524   3.232
15765W        W57776   9.349  23.111   9.962
15766W        W57777   4.419   7.884   1.518
15767W        W57778  19.009   8.084   8.312
15768W        W57779  13.289  19.694   9.632
15769W        W57780  21.939   0.774   3.732
15770W        W57781  20.069   3.754   9.162
15771W        W57782  19.589  12.174   9.542
15772W        W57783  13.869   7.274   9.072
15773W        W57784  25.009  13.904   8.192
15774W        W57785  13.059   1.614   2.148
15775W        W57786   9.079  17.084  15.392
15776W        W57787  14.989   7.744   1.048
15777W        W57788  11.059  25.561   0.178
15778W        W57789  20.069  19.644   8.242
15779W        W57790  14.629  24.321   0.448
15780W        W57791  14.759   6.334   1.398
15781W        W57792  12.769   9.494   3.102
15782W        W57793  13.729  21.441   0.858
15783W        W57794  24.009  14.774   1.568
15784W        W57795  16.729   8.804   1.438
15785W        W57796   7.839  16.084   3.722
15786W        W57797  18.529  17.414  10.402
15787W        W57798  20.679  15.224  10.382
15788W        W57799   6.129   2.994   1.158
15789W        W57800   9.179   2.694  14.652
15790W        W57801  20.379   6.024   8.182
15791W        W57802  22.539  11.244  11.242
15792W        W57803  12.739  17.734   2.632
15793W        W57804  22.549  21.821  11.822
15794W        W57805  16.229  23.071  12.102
15795W        W57806   1.899  25.551   3.152
15796W        W57807  13.859  12.014   4.062
15797W        W57808  11.319  19.914   9.982
15798W        W57809   5.139  16.504   3.522
15799W        W57810  14.919   4.134   9.562
15800W        W57811   7.539  11.714   0.598
15801W        W57812   4.019  10.794   9.162
15802W        W57813  21.829  13.434   9.102
15803W        W57814  11.329   8.104   3.512
15804W        W57815  22.259  25.031   3.062
15805W        W57816   4.979  23.381   8.312
15806W        W57817  14.739  22.941  10.262
15807W        W57818  22.409   7.334   1.598
15808W        W57819  21.069   4.054   9.772
15809W        W57820   0.609  12.904   8.452
15810W        W57821   8.669  25.281   3.892
15811W        W57822  23.219  17.834   8.702
15812W        W57823  11.589  15.614   4.512
15813W        W57824  14.799  20.574   9.632
15814W        W57825   9.569   0.344   2.992
15815W        W57826   7.089  11.284   1.558
15816W        W57827  20.479  22.651   7.162
15817W        W57828   5.339  23.151   3.612
15818W        W57829   6.389   2.694   0.678
15819W        W57830  15.919  25.161   4.092
15820W        W57831  10.719   9.434   2.582
15821W        W57832  25.389  16.634   8.912
15822W        W57833  15.499  13.514   4.312
15823W        W57834  10.709  21.731  10.932
15824W        W57835  14.169  23.221  10.492
15825W        W57836   9.579   2.544  15.752
15826W        W57837  15.569  18.084   1.068
15827W        W57838  11.909  15.754  15.692
15828W        W57839   4.849  25.271  10.902
15829W        W57840  23.289  19.444   8.932
15830W        W57841  15.419  18.074   8.492
15831W        W57842   4.629   0.184   3.782
15832W        W57843  24.869   9.854   1.338
15833W        W57844  16.849   4.674  15.752
15834W        W57845   3.239  17.074   9.192
15835W        W57846  23.619  21.521   1.178
15836W        W57847  17.139  18.564   0.078
15837W        W57848  21.899  23.891  10.682
15838W        W57849   6.779  11.704   3.592
15839W        W57850   7.469   1.644  15.462
15840W        W57851  22.459  17.554   1.118
15841W        W57852   2.089  19.904   1.028
15842W        W57853  14.739  13.694   3.502
15843W        W57854   6.699   5.824   0.248
15844W        W57855  10.299  19.224   8.772
15845W        W57856   9.009   9.114   0.388
15846W        W57857   2.179  11.074  10.522
15847W        W57858  14.149   6.364   9.462
15848W        W57859   8.309  24.581   2.318
15849W        W57860   2.339   1.354  11.132
15850W        W57861  24.909  11.254   4.052
15851W        W57862  10.169   5.524   2.942
15852W        W57863  11.869  11.844   0.458
15853W        W57864   6.989  17.774   0.568
15854W        W57865   8.349   8.284   8.022
15855W        W57866  20.749  21.274  10.042
15856W        W57867  22.729  10.284   9.222
15857W        W57868  11.879  17.924   2.742
15858W        W57869  11.979  20.754   8.432
15859W        W57870  12.209   8.934   3.522
15860W        W57871   4.709  23.731  10.142
15861W        W57872  16.049  16.674   3.902
15862W        W57873  19.259   2.834   9.732
15863W        W57874  10.829   2.404   2.198
15864W        W57875  10.449   8.424  15.132
15865W        W57876   7.819   4.994   3.042
15866W        W57877  10.129  23.191   9.222
15867W        W57878  25.079  21.144   1.268
15868W        W57879   0.759   5.014   3.062
15869W        W57880   8.749  21.841   1.858
15870W        W57881  22.469  17.494  10.922
15871W        W57882   1.319  20.254   0.908
15872W        W57883  20.819  22.251   2.782
15873W        W57884  18.129  20.244  15.362
15874W        W57885  20.559  13.024  11.522
15875W        W57886   4.319  13.784  14.992
15876W        W57887  20.379   3.594   8.732
15877W        W57888   4.669   0.674   2.158
15878W        W57889  10.409  22.391   4.212
15879W        W57890  15.129  16.224  15.542
15880W        W57891   5.079  10.534  10.682
15881W        W57892  13.119  13.204   1.958
15882W        W57893  12.059  12.644  10.512
15883W        W57894  21.629  21.084   7.462
15884W        W57895   3.989  18.234   0.938
15885W        W57896  14.979   9.604   2.592
15886W        W57897   2.069  22.681  10.712
15887W        W57898  19.449   5.324  15.122
15888W        W57899  13.559   5.874  15.152
15889W        W57900   1.169  16.334  11.822
15890W        W57901  20.249  10.374  10.682
15891W        W57902   4.439  24.431   7.532
15892W        W57903  18.549  22.551   2.198
15893W        W57904  11.489   9.524  14.392
15894W        W57905   4.029   2.584  11.802
15895W        W57906  20.099  18.444  10.092
15896W        W57907  15.189  15.454   1.968
15897W        W57908   7.719   1.454   0.508
15898W        W57909  22.779   4.824   9.342
15899W        W57910  12.989  24.251  10.702
15900W        W57911   3.089  10.774   2.318
15901W        W57912  15.969   0.604   7.992
15902W        W57913   2.299   1.974   9.882
15903W        W57914  11.079  11.344   4.362
15904W        W57915  20.639   5.224   2.592
15905W        W57916  14.029  19.964   3.972
15906W        W57917  20.689   5.594   3.202
15907W        W57918  11.569  11.054  11.012
15908W        W57919  13.239  11.744   4.442
15909W        W57920   1.699  14.104  10.982
15910W        W57921  10.559   5.524   2.008
15911W        W57922   2.189  23.331   2.902
15912W        W57923   1.289   8.794   7.702
15913W        W57924  16.359  14.044   2.702
15914W        W57925  17.139   8.684   2.872
15915W        W57926   1.519  14.834  12.162
15916W        W57927   3.279  24.181  11.272
15917W        W57928  21.589  23.351   9.822
15918W        W57929   3.109  10.634  10.372
15919W        W57930  10.919  13.924   1.508
15920W        W57931   9.279  19.634  15.572
15921W        W57932  16.999   0.154  12.042
15922W        W57933  10.869  11.384   0.298
15923W        W57934   4.169  20.384  10.242
15924W        W57935   3.809  22.551   2.562
15925W        W57936   4.979  11.014   1.438
15926W        W57937   3.999   2.054  11.692
15927W        W57938  24.019   8.144   6.942
15928W        W57939  21.019  16.974   2.722
15929W        W57940  15.179  21.881  15.772
15930W        W57941  14.969  19.954   3.112
15931W        W57942  15.109   9.684   9.252
15932W        W57943  14.599   5.654   0.598
15933W        W57944  18.019  19.814   3.132
15934W        W57945  10.709  16.774   9.522
15935W        W57946   4.939  11.554   1.568
15936W        W57947   3.529  12.104   0.448
15937W        W57948  19.129  12.684   2.058
15938W        W57949  23.279  22.781   8.972
15939W        W57950   1.459  24.351  11.332
15940W        W57951  24.269   3.344   8.142
15941W        W57952  10.809  11.924  14.452
15942W        W57953  21.249  11.384  15.672
15943W        W57954   0.489   6.714  10.312
15944W        W57955  22.539  22.791   7.342
15945W        W57956  23.369  21.361   8.152
15946W        W57957   6.739  19.714  11.672
15947W        W57958  13.469   3.664   4.352
15948W        W57959   5.629  12.614   9.632
15949W        W57960   2.199  18.864   9.382
15950W        W57961   3.029  14.414   2.148
15951W        W57962  15.869  16.084   3.222
15952W        W57963   3.169   6.534   9.602
15953W        W57964   7.579  24.431   8.002
15954W        W57965  16.729   6.914  10.172
15955W        W57966  19.629  14.494   1.918
15956W        W57967   4.149  13.954  10.312
15957W        W57968  13.909  11.294  10.232
15958W        W57969  11.079  22.821   3.552
15959W        W57970   5.029  24.651   0.008
15960W        W57971  13.049   7.194   2.602
15961W        W57972  23.579   8.204   9.562
15962W        W57973  13.969  15.334   3.642
15963W        W57974   9.219  11.824   9.182
15964W        W57975  13.009  16.274   4.242
15965W        W57976  12.129   2.214  14.872
15966W        W57977  17.169  11.894   1.448
15967W        W57978  14.689   3.264   1.218
15968W        W57979  12.649   0.974   2.552
15969W        W57980  11.969   7.514   0.828
15970W        W57981  17.209  24.741  15.732
15971W        W57982  16.329   5.114  10.552
15972W        W57983  11.559   0.994  10.392
15973W        W57984  15.499  16.894   3.922
15974W        W57985  14.929   9.144   1.658
15975W        W57986   3.559  18.524   9.562
15976W        W57987  24.649  25.171   0.658
15977W        W57988   5.549  19.454   9.452
15978W        W57989   0.699  12.084  10.392
15979W        W57990  14.629  14.744   1.818
15980W        W57991   5.999  14.584   9.462
15981W        W57992   5.419   0.044   3.162
15982W        W57993   6.919  16.364   2.418
15983W        W57994  18.819  12.784   9.892
15984W        W57995   3.919   4.444   2.662
15985W        W57996  13.599  20.694   1.018
15986W        W57997   3.479  15.904   9.312
15987W        W57998   9.729   0.134   2.552
15988W        W57999   2.289  24.621   8.252
15989W        W58000  13.269  11.204   3.582
15990W        W58001  10.599  11.224  11.032
15991W        W58002  25.049  14.454   3.572
15992W        W58003   5.579  19.794   2.942
15993W        W58004   5.059   7.394   2.448
15994W        W58005  13.579  16.254   2.168
15995W        W58006   5.149  19.064   1.108
15996W        W58007  22.569   3.984   2.622
15997W        W58008   6.809  15.224   1.198
15998W        W58009  22.479  19.894  10.572
15999W        W58010   8.399  13.064   3.822
16000W        W58011  14.479   5.284   8.762
16001W        W58012   1.869  10.674   9.812
16002W        W58013  21.149  13.974   0.748
16003W        W58014  16.929  10.594  15.312
16004W        W58015  12.159  21.961  10.692
16005W        W58016   2.659  23.541   2.208
16006W        W58017  10.249  20.284   8.662
16007W        W58018  24.369   6.674   1.258
16008W        W58019  20.149  23.941   8.912
16009W        W58020   3.879  17.774   3.022
16010W        W58021   8.289   7.014   0.958
16011W        W58022  20.629  21.751  10.902
16012W        W58023  10.969  23.821  15.372
16013W        W58024   9.579  21.811   8.542
16014W        W58025  17.359   4.514  10.072
16015W        W58026   1.049  21.601  11.032
16016W        W58027  23.139  19.454   9.812
16017W        W58028  14.329  11.754   4.002
16018W        W58029   0.409   3.264   1.328
16019W        W58030   8.279   8.734   3.962
16020W        W58031  12.129  19.964   0.038
16021W        W58032  15.919  15.734   1.968
16022W        W58033   3.469   6.154   9.482
16023W        W58034  24.799   9.744   8.302
16024W        W58035   0.011  14.794   2.602
16025W        W58036  13.339  18.094   1.248
16026W        W58037  10.659  14.714  15.102
16027W        W58038  10.389   7.874   0.348
16028W        W58039   4.179   0.394   9.852
16029W        W58040   8.799  18.804   2.532
16030W        W58041  22.179  25.591   3.372
16031W        W58042   1.799   3.694  15.582
16032W        W58043  11.189   2.344   9.452
16033W        W58044  22.459   9.594   2.008
16034W        W58045  15.229  12.034  15.052
16035W        W58046  12.299  10.454  13.542
16036W        W58047   9.109  25.311   0.728
16037W        W58048  20.089  21.074   1.488
16038W        W58049  10.099  21.284   8.892
16039W        W58050  13.239  17.414   9.802
16040W        W58051  12.879  13.554   3.882
16041W        W58052  19.689  22.731   0.338
16042W        W58053  11.079   4.704   8.322
16043W        W58054   1.109  20.854   8.992
16044W        W58055  10.429   8.914  10.262
16045W        W58056  19.929  20.834   1.958
16046W        W58057   5.609  24.571   8.772
16047W        W58058   6.519  12.884   9.962
16048W        W58059  20.109   1.924   3.302
16049W        W58060   4.669   0.084   0.508
16050W        W58061   2.279  10.964   0.048
16051W        W58062  25.589   1.304   2.702
16052W        W58063  23.249  18.494  10.612
16053W        W58064   0.429  24.951   0.508
16054W        W58065  12.889  18.824   2.458
16055W        W58066  19.389   5.824   8.352
16056W        W58067  17.459  24.741   0.898
16057W        W58068  20.859   3.554  10.432
16058W        W58069   1.639  14.034   1.468
16059W        W58070  24.249  10.944  11.142
16060W        W58071  12.119  23.951   0.988
16061W        W58072  22.479   6.874   0.928
16062W        W58073   2.959  24.811   9.692
16063W        W58074  14.459  22.631   0.558
16064W        W58075   0.449  23.001   1.278
16065W        W58076  23.569   7.024   0.918
16066W        W58077   4.709  10.994  14.762
16067W        W58078   5.059  13.614   1.228
16068W        W58079  11.289  22.401   1.348
16069W        W58080  11.589   2.594  15.382
16070W        W58081  13.009   4.734   3.572
16071W        W58082  20.879  14.294   1.678
16072W        W58083   4.239  20.504  10.742
16073W        W58084   7.929   1.434   8.452
16074W        W58085  15.919  17.164   3.062
16075W        W58086  19.779   1.724   1.778
16076W        W58087   5.469  10.334   1.848
16077W        W58088  14.409   4.224   9.972
16078W        W58089  21.239   8.604   3.092
16079W        W58090   5.939  11.724   7.652
16080W        W58091   2.529   8.304  11.092
16081W        W58092  18.059   4.264   7.662
16082W        W58093  14.459  17.004   3.212
16083W        W58094  20.769  10.054   1.608
16084W        W58095  15.489  17.874   2.682
16085W        W58096  18.759   5.204   1.608
16086W        W58097  18.389   1.494   9.932
16087W        W58098  11.249  18.964   2.268
16088W        W58099  10.149   3.074   0.528
16089W        W58100   8.839   4.204  15.532
16090W        W58101  19.979   7.704   3.282
16091W        W58102   6.649  15.674  15.222
16092W        W58103  17.979  24.471  10.772
16093W        W58104  13.209  10.234   5.252
16094W        W58105   4.559  10.334  10.922
16095W        W58106  12.539  11.644  15.012
16096W        W58107   0.699  19.564   7.762
16097W        W58108   2.479  15.134   8.532
16098W        W58109   2.589  20.294   9.002
16099W        W58110  18.239  24.671   2.712
16100W        W58111  10.669  23.841   4.352
16101W        W58112  17.659   3.604   8.252
16102W        W58113  10.049  10.224   9.152
16103W        W58114   5.729  10.894   8.022
16104W        W58115   1.349   2.384   0.508
16105W        W58116  23.129  23.391   3.112
16106W        W58117  14.219   0.024   0.698
16107W        W58118  17.689  12.114   0.048
16108W        W58119   4.559  15.144   9.742
16109W        W58120   4.279   2.704   0.398
16110W        W58121  21.059   6.834  11.202
16111W        W58122  18.889   9.384   3.032
16112W        W58123  17.699   4.474  15.822
16113W        W58124  14.859  11.924   3.222
16114W        W58125   6.389  20.634   3.192
16115W        W58126   0.279  15.674   4.312
16116W        W58127  25.579  13.074   2.892
16117W        W58128  10.659   3.714   1.318
16118W        W58129  11.779  24.971   9.182
16119W        W58130  13.029  22.921  11.382
16120W        W58131  18.809  16.014   2.098
16121W        W58132  24.639   1.984   0.998
16122W        W58133  21.549   1.984   2.922
16123W        W58134  25.049  15.124  10.402
16124W        W58135  19.599   8.324   9.982
16125W        W58136   6.739  14.884   3.632
16126W        W58137   2.909  17.754   0.358
16127W        W58138  14.749   6.264   0.348
16128W        W58139  18.739   0.374   2.972
16129W        W58140  15.829   2.604   7.822
16130W        W58141  21.999   6.104   7.392
16131W        W58142  17.979   9.624  15.232
16132W        W58143  12.719  18.764   9.342
16133W        W58144  15.709   6.824  10.202
16134W        W58145   6.959   3.314  11.482
16135W        W58146  18.629  11.164  14.482
16136W        W58147   6.139  14.344  11.632
16137W        W58148  11.099   8.474   9.452
16138W        W58149   9.119  21.481   9.902
16139W        W58150  15.229  14.154   0.338
16140W        W58151  14.789  10.984  10.762
16141W        W58152   0.279  21.691   9.482
16142W        W58153  21.839   7.394   3.622
16143W        W58154  21.499  21.094   0.488
16144W        W58155  11.509   3.324   1.698
16145W        W58156  10.599  23.561  10.532
16146W        W58157  23.569   1.064  11.752
16147W        W58158   6.119   3.614   1.888
16148W        W58159  22.459  12.054   3.032
16149W        W58160   7.459   9.104   1.218
16150W        W58161  11.609  19.164   9.132
16151W        W58162  14.029  19.504  11.762
16152W        W58163  13.559  18.424   3.512
16153W        W58164   0.769   1.334  15.522
16154W        W58165  18.299   9.334  10.422
16155W        W58166   2.749   1.134  10.232
16156W        W58167   8.079   6.854   0.408
16157W        W58168  24.189  19.994  11.312
16158W        W58169  14.029  18.224   3.652
16159W        W58170  15.069  20.034  15.842
16160W        W58171  22.729   5.214   0.308
16161W        W58172  20.619  15.834   7.812
16162W        W58173   8.269  22.691  10.092
16163W        W58174  25.279  20.674  10.142
16164W        W58175  16.979  12.124   2.418
16165W        W58176  14.629   3.834  15.682
16166W        W58177   4.269   1.374   7.132
16167W        W58178  11.139  14.744   9.922
16168W        W58179  24.549   5.334   2.502
16169W        W58180   2.679   5.294   8.292
16170W        W58181   7.509  13.444  11.382
16171W        W58182   9.169  23.861   1.568
16172W        W58183   4.119   5.034  10.572
16173W        W58184  20.549  13.514   0.298
16174W        W58185  14.749   4.684   9.432
16175W        W58186  13.569  14.664   3.962
16176W        W58187   8.209  18.314   8.922
16177W        W58188   9.979   5.084   3.052
16178W        W58189  24.059   1.164   0.178
16179W        W58190  12.619  14.614   0.818
16180W        W58191  21.079   9.924   2.952
16181W        W58192  11.779  17.514  15.132
16182W        W58193   7.919   5.874   9.792
16183W        W58194  25.369   7.434   0.718
16184W        W58195  14.969   5.484   8.822
16185W        W58196  19.409   8.814   7.632
16186W        W58197  23.259  13.714  12.412
16187W        W58198  12.449  20.784   1.938
16188W        W58199  25.479  22.701  11.582
16189W        W58200   4.579  15.604  10.822
16190W        W58201  17.499  24.321   8.932
16191W        W58202   0.909  15.514   3.752
16192W        W58203  15.979  13.454   1.288
16193W        W58204  13.699   9.384   2.468
16194W        W58205  13.929  17.924   9.262
16195W        W58206   8.439   7.224   0.518
16196W        W58207  21.279  23.331  11.742
16197W        W58208  11.669   8.134  10.062
16198W        W58209   9.329  16.204  15.662
16199W        W58210  17.179  14.194  11.522
16200W        W58211  16.739   0.984  10.672
16201W        W58212  16.259  13.514  10.272
16202W        W58213  11.349  22.941  10.752
16203W        W58214  19.609   0.134  10.992
16204W        W58215   4.359   6.054  10.652
16205W        W58216  14.169   0.684  10.852
16206W        W58217  20.929   0.634   9.462
16207W        W58218   3.399   2.504   1.018
16208W        W58219  16.389   2.314   8.392
16209W        W58220  16.069  14.114  15.312
16210W        W58221   9.239   8.644   0.548
16211W        W58222   2.779  10.084   9.582
16212W        W58223  21.139  21.791   8.852
16213W        W58224  24.969  19.744   8.982
16214W        W58225  21.179   7.284   8.662
16215W        W58226  14.309   1.754  10.152
16216W        W58227  21.069   0.284   0.548
16217W        W58228   0.349   0.784   0.508
16218W        W58229   3.419  12.664   9.572
16219W        W58230   4.939  14.514  11.402
16220W        W58231  22.259  18.304   3.082
16221W        W58232  14.939  15.564   3.362
16222W        W58233  10.399   3.964   3.102
16223W        W58234  25.309  10.884  10.362
16224W        W58235  21.179   2.324  15.172
16225W        W58236  11.569  22.411   4.922
16226W        W58237  12.489  17.874   9.662
16227W        W58238  11.349  10.894   2.622
16228W        W58239   6.419  15.324  15.532
16229W        W58240  16.729  14.304   2.872
16230W        W58241  22.019  12.304   0.318
16231W        W58242  20.969  19.354   7.822
16232W        W58243  21.569  19.544   1.388
16233W        W58244   0.699  15.644  10.452
16234W        W58245  18.329   2.664   7.502
16235W        W58246  13.479  24.961   9.102
16236W        W58247  22.299  18.364   2.612
16237W        W58248  18.109  20.774  11.072
16238W        W58249  16.659   3.154   3.852
16239W        W58250  18.309   8.834   1.428
16240W        W58251  16.939   0.664  10.312
16241W        W58252  11.109   5.594   9.902
16242W        W58253  11.789   2.904   1.358
16243W        W58254  14.049   3.024  10.622
16244W        W58255  16.879  11.394   2.488
16245W        W58256   7.979  20.464   8.252
16246W        W58257  10.369  16.104  15.662
16247W        W58258   4.999   6.664   1.458
16248W        W58259  14.759   0.304   7.692
16249W        W58260  14.189   7.754   2.832
16250W        W58261  21.119  25.551   1.758
16251W        W58262  11.509  15.204   9.912
16252W        W58263   8.859  11.914   0.478
16253W        W58264   0.499  23.651   1.958
16254W        W58265   5.749   2.664   1.368
16255W        W58266   8.439   6.884   8.302
16256W        W58267   9.549  10.024   2.018
16257W        W58268  10.299   1.344  14.872
16258W        W58269  23.959  25.331   3.242
16259W        W58270   6.159  22.601   0.198
16260W        W58271   2.029  17.644   0.288
16261W        W58272  23.009  10.974   8.662
16262W        W58273  23.709   6.654   7.302
16263W        W58274   6.309  12.984   8.492
16264W        W58275  18.639  23.371  10.012
16265W        W58276   1.449   2.854   8.012
16266W        W58277   1.679  21.801  15.542
16267W        W58278   2.749  23.121   9.302
16268W        W58279   8.309  21.254   9.302
16269W        W58280   5.579  16.064   9.332
16270W        W58281   9.499  12.524  10.282
16271W        W58282  12.559  10.984   3.592
16272W        W58283   2.699   9.754  11.442
16273W        W58284  17.509   3.994   1.148
16274W        W58285  20.409  12.284   2.138
16275W        W58286  22.669  11.044  10.212
16276W        W58287  24.239  23.511   3.012
16277W        W58288   4.879  13.154   9.642
16278W        W58289  22.129  22.441   0.928
16279W        W58290   1.689   3.664   6.882
16280W        W58291  25.289  23.171  11.662
16281W        W58292  21.349  24.021  10.462
16282W        W58293   8.359   6.284   8.562
16283W        W58294   5.479   4.014   6.912
16284W        W58295  16.519  19.574   1.558
16285W        W58296   4.569   1.564   1.238
16286W        W58297   6.069  21.441   7.992
16287W        W58298   8.729   0.134   3.492
16288W        W58299   2.809   6.664   0.798
16289W        W58300  15.729   0.014   0.018
16290W        W58301  15.649   7.494   3.942
16291W        W58302   1.159  16.744   2.802
16292W        W58303  12.939   7.074   0.608
16293W        W58304  12.629  23.241  10.582
16294W        W58305  12.869   9.434  10.342
16295W        W58306   4.629   9.974   2.098
16296W        W58307   9.899   0.644   2.308
16297W        W58308  16.419  15.184   9.862
16298W        W58309   2.679  10.454  10.052
16299W        W58310  16.419  12.354  15.432
16300W        W58311   7.879  18.314   1.758
16301W        W58312  18.339  11.574   9.252
16302W        W58313  12.589  13.234   4.612
16303W        W58314  14.749  10.364  14.722
16304W        W58315  25.079   2.304  15.682
16305W        W58316  14.209  13.644   5.032
16306W        W58317  15.819   6.874   3.232
16307W        W58318  10.249  18.654   2.752
16308W        W58319   9.599  14.654   3.102
16309W        W58320  13.579  20.674   9.072
16310W        W58321  22.059   1.334   9.932
16311W        W58322  20.229  21.721   8.262
16312W        W58323  15.049  23.271   2.408
16313W        W58324  10.039   6.164   7.602
16314W        W58325   3.099   3.724   9.482
16315W        W58326  23.299  21.174  11.492
16316W        W58327   1.189  19.534  10.902
16317W        W58328  11.229  21.871   8.612
16318W        W58329  22.519   7.404   8.952
16319W        W58330   7.899  11.054  15.612
16320W        W58331   1.259   4.304   1.738
16321W        W58332  10.399  11.774   3.072
16322W        W58333  15.779   2.784   4.102
16323W        W58334   2.129   8.154   7.812
16324W        W58335   4.609  22.371   1.568
16325W        W58336   6.989  19.714  15.512
16326W        W58337   8.189   5.294   9.122
16327W        W58338   6.389   6.044   9.292
16328W        W58339   9.259   0.064  10.642
16329W        W58340   3.709   4.164   8.752
16330W        W58341  13.109   2.374  10.022
16331W        W58342  15.269  16.964   9.582
16332W        W58343  17.749  18.304   0.668
16333W        W58344   9.209   8.404  15.522
16334W        W58345  16.219   8.304   9.562
16335W        W58346   1.379  24.181   8.192
16336W        W58347   5.019   5.154   2.258
16337W        W58348   2.059  14.294  15.012
16338W        W58349  16.469  21.931   9.012
16339W        W58350  24.199  12.944   1.998
16340W        W58351   4.209  12.234   9.112
16341W        W58352  25.489  16.484   1.838
16342W        W58353  22.659  17.774   9.062
16343W        W58354  19.059  16.254   3.732
16344W        W58355   3.279  22.771  10.212
16345W        W58356   8.149   3.734   8.882
16346W        W58357   8.179  24.341  11.272
16347W        W58358  12.139  18.694   9.092
16348W        W58359   4.989  21.691   3.972
16349W        W58360   8.849  16.124   2.692
16350W        W58361  13.299  11.084  10.402
16351W        W58362  24.339  17.284   1.838
16352W        W58363  11.779  19.014   2.398
16353W        W58364  22.649  15.784  10.702
16354W        W58365  20.099   9.044   0.998
16355W        W58366   3.799   5.204   2.178
16356W        W58367  14.019  22.771   0.818
16357W        W58368  16.689  12.124   3.882
16358W        W58369  17.669  17.584   2.398
16359W        W58370   2.699  24.151   0.488
16360W        W58371   5.549  10.144   0.698
16361W        W58372  19.479  23.421   9.072
16362W        W58373   0.001   8.574   9.882
16363W        W58374  22.859   4.204   7.592
16364W        W58375   9.109  19.984   3.922
16365W        W58376   7.239   9.794   1.858
16366W        W58377   1.139  24.591   4.312
16367W        W58378   8.079  23.331   1.328
16368W        W58379   5.369  24.731  10.942
16369W        W58380  19.019  15.354   9.412
16370W        W58381  12.439   5.644   9.312
16371W        W58382  21.529  15.134  12.032
16372W        W58383  15.859  22.201   0.138
16373W        W58384  10.809  17.114  10.522
16374W        W58385   1.519  21.761  10.022
16375W        W58386   5.229   8.864  15.632
16376W        W58387  23.119  17.454   0.108
16377W        W58388  21.239   2.624   0.538
16378W        W58389   6.169  21.981   0.878
16379W        W58390   8.769  22.651  10.022
16380W        W58391   7.889  22.661   1.068
16381W        W58392   1.039  24.961   2.218
16382W        W58393  23.739  23.171   8.002
16383W        W58394  22.799  12.934   1.208
16384W        W58395  11.399  18.074   3.232
16385W        W58396   0.739   0.594   8.272
16386W        W58397  21.389  11.004  11.912
16387W        W58398  11.819  17.524   3.822
16388W        W58399  23.439  24.091  11.902
16389W        W58400  10.389   7.934   0.938
16390W        W58401   6.209   1.574   2.298
16391W        W58402  20.109   8.094   1.368
16392W        W58403   4.869   1.774   2.982
16393W        W58404   5.849   3.984   1.598
16394W        W58405   4.219   0.974   8.122
16395W        W58406  12.109  24.651  15.852
16396W        W58407  11.179  11.724   6.052
16397W        W58408  20.989  15.474   7.782
16398W        W58409   3.479  21.641   1.418
16399W        W58410  15.799  10.774  14.612
16400W        W58411  17.069  17.074   8.032
16401W        W58412  17.929  17.254   0.998
16402W        W58413  21.119   2.254  11.922
16403W        W58414  20.009  10.004   8.522
16404W        W58415   6.709  14.064   9.002
16405W        W58416  14.579  15.874   9.332
16406W        W58417  17.319   4.824   2.118
16407W        W58418   8.629   2.584  14.552
16408W        W58419   8.269  12.334   0.998
16409W        W58420  25.139  16.954   2.308
16410W        W58421  18.439  22.351   7.472
16411W        W58422  25.269  10.734   2.438
16412W        W58423  19.349   8.734  10.702
16413W        W58424  21.129  17.364  11.122
16414W        W58425   3.329  14.154   8.012
16415W        W58426  10.969  10.944   4.712
16416W        W58427   2.259  21.004  10.732
16417W        W58428  22.879  12.874   9.082
16418W        W58429   4.929  22.461   0.938
16419W        W58430  21.769  23.901   2.662
16420W        W58431  11.989   4.954   9.522
16421W        W58432   0.729   0.694   1.808
16422W        W58433  18.199   1.644   1.188
16423W        W58434   7.229  13.114   0.678
16424W        W58435  19.729  23.041  10.562
16425W        W58436   2.039  21.741   2.672
16426W        W58437   0.669  15.804   3.392
16427W        W58438  11.909  20.524   1.058
16428W        W58439   1.739  10.014  15.802
16429W        W58440   2.569  23.901  10.872
16430W        W58441  21.369  13.474   0.088
16431W        W58442   9.239  18.274   0.458
16432W        W58443  18.009  23.291   0.548
16433W        W58444  12.219  10.634   2.218
16434W        W58445  25.559   7.664   0.328
16435W        W58446   6.019  10.324   7.902
16436W        W58447   2.439  21.541   2.882
16437W        W58448   1.189  13.394   1.098
16438W        W58449   1.469  10.424  10.542
16439W        W58450  22.689   2.504  10.292
16440W        W58451   8.299   3.684   2.962
16441W        W58452  18.869  16.844  15.612
16442W        W58453   8.589   4.324   1.698
16443W        W58454   6.289   3.354  10.612
16444W        W58455  23.089  14.534   9.642
16445W        W58456   0.011  15.364  10.952
16446W        W58457  24.889   4.814  10.762
16447W        W58458  16.119  10.764  10.532
16448W        W58459   5.209   4.724   2.118
16449W        W58460   8.409  11.944   8.982
16450W        W58461   2.699   0.824   9.152
16451W        W58462   4.649   8.774   0.608
16452W        W58463  13.669   3.614   0.398
16453W        W58464  11.039   1.954   0.138
16454W        W58465  19.059  12.964   2.468
16455W        W58466   4.999   8.374   2.872
16456W        W58467  10.609   3.944   8.392
16457W        W58468   9.029  10.264  14.872
16458W        W58469  20.339   9.634   1.738
16459W        W58470   5.609   0.024   0.998
16460W        W58471   3.349  14.974  10.712
16461W        W58472   2.699  21.871  11.332
16462W        W58473   8.559  11.804   7.902
16463W        W58474   7.149  20.964   5.072
16464W        W58475  17.009   1.584   1.838
16465W        W58476  24.689  14.074  12.402
16466W        W58477   3.299  17.254   1.378
16467W        W58478   7.179   3.504   3.882
16468W        W58479  24.639  21.401  10.302
16469W        W58480  21.539   2.164   9.582
16470W        W58481   2.879  15.204   9.272
16471W        W58482  13.249  23.951   1.628
16472W        W58483  21.789   9.254   1.508
16473W        W58484  21.189   7.094   0.418
16474W        W58485   2.609   2.324   0.468
16475W        W58486   3.959   0.314   1.608
16476W        W58487  24.819   0.954   3.872
16477W        W58488   6.869   0.814   2.208
16478W        W58489  23.729  21.921   8.652
16479W        W58490  18.909   3.274   0.258
16480W        W58491  10.899  25.121  14.992
16481W        W58492   6.149  16.714   2.972
16482W        W58493   3.839   9.544   7.902
16483W        W58494   0.579   8.874  10.672
16484W        W58495   7.719  14.014   9.662
16485W        W58496  24.209  13.124   3.312
16486W        W58497  23.549   8.664   9.152
16487W        W58498  24.179  13.714   2.448
16488W        W58499  18.999  23.761   3.102
16489W        W58500  17.439  21.751   1.768
16490W        W58501  20.619   8.714   8.332
16491W        W58502   0.829  21.581   4.102
16492W        W58503   3.319   8.154  10.572
16493W        W58504  13.249  14.664  14.312
16494W        W58505  11.119  14.194   4.062
16495W        W58506  20.249  13.944  11.612
16496W        W58507   8.409   7.844  10.212
16497W        W58508  15.629   0.954  10.992
16498W        W58509   8.469   1.664   1.778
16499W        W58510  22.279  18.634   8.782
16500W        W58511   0.759   6.104   8.042
16501W        W58512  17.859   1.594   8.752
16502W        W58513  15.379  19.574   9.372
16503W        W58514   0.539  19.784   9.472
16504W        W58515  20.569  10.954  14.522
16505W        W58516  20.039  18.654   9.132
16506W        W58517  12.859  15.064   9.872
16507W        W58518  19.279   9.664   3.122
16508W        W58519   2.799  19.314  10.142
16509W        W58520  15.569   0.504   0.208
16510W        W58521  10.609  13.044   2.882
16511W        W58522  11.299   2.634  14.502
16512W        W58523  11.509   8.334   1.898
16513W        W58524  25.479   4.054   1.568
16514W        W58525  11.119  16.004   4.142
16515W        W58526  19.719  21.671   8.442
16516W        W58527   7.589   3.664   8.902
16517W        W58528  14.329  17.894   1.618
16518W        W58529  25.289  15.304  10.002
16519W        W58530  16.409  17.044   8.642
16520W        W58531   9.769  23.761   0.438
16521W        W58532  11.259   2.814   2.388
16522W        W58533  22.019  19.334   8.662
16523W        W58534   3.469   4.414   0.658
16524W        W58535   8.749   1.154   9.702
16525W        W58536  13.809  24.721  11.162
16526W        W58537   8.059  10.874   2.428
16527W        W58538  14.569   8.094  15.182
16528W        W58539  22.459  16.544  11.472
16529W        W58540  24.019  23.371  11.242
16530W        W58541   2.649  11.304   0.238
16531W        W58542  23.169   2.214   1.678
16532W        W58543  21.959   4.694  10.872
16533W        W58544   6.209   1.044   0.898
16534W        W58545   0.469   0.324  10.872
16535W        W58546   6.709  17.064   9.472
16536W        W58547  19.449   1.954   4.012
16537W        W58548   0.889  20.464   8.282
16538W        W58549   8.879  15.824  10.842
16539W        W58550   0.829  17.314  10.812
16540W        W58551   6.739  12.724   3.722
16541W        W58552  13.099   0.014   8.812
16542W        W58553   7.989  21.144   0.548
16543W        W58554  19.859  18.044   9.792
16544W        W58555  17.769  24.691   0.538
16545W        W58556  23.809   3.024   7.232
16546W        W58557  14.209  17.844   3.402
16547W        W58558  16.799  17.654   1.598
16548W        W58559  16.479   2.544   0.798
16549W        W58560   8.209   6.524   7.662
16550W        W58561  22.039  25.421   9.122
16551W        W58562   1.119  11.984   7.602
16552W        W58563  25.049  23.871  10.712
16553W        W58564   3.619  24.801   0.068
16554W        W58565  20.429  19.204   7.992
16555W        W58566  16.459  20.074  15.782
16556W        W58567  24.819   2.634  10.672
16557W        W58568  17.109   3.924  11.352
16558W        W58569   7.549  14.694   3.392
16559W        W58570   9.389   5.884   0.548
16560W        W58571  12.469  17.524   0.948
16561W        W58572   9.639  23.331  10.742
16562W        W58573  17.059   5.284  10.592
16563W        W58574  23.909  16.144   9.342
16564W        W58575  22.459  23.321   7.362
16565W        W58576  14.959  14.684  10.132
16566W        W58577  19.359   5.224   3.602
16567W        W58578   9.929  22.691  10.342
16568W        W58579   1.319  17.934   3.532
16569W        W58580  22.469  11.474   2.448
16570W        W58581   7.469  15.684  15.352
16571W        W58582  12.379  20.224   1.828
16572W        W58583   7.279  12.294  15.312
16573W        W58584  12.559  23.191  12.092
16574W        W58585   2.049  12.414   8.572
16575W        W58586  25.049  25.031   0.928
16576W        W58587  20.949   6.834   4.272
16577W        W58588  20.379  10.054  11.622
16578W        W58589  17.149  11.754   2.692
16579W        W58590   0.709   0.474   0.208
16580W        W58591  19.729   2.004   7.462
16581W        W58592  11.039   6.644   9.242
16582W        W58593  20.119  10.274  14.762
16583W        W58594   1.609   3.404   1.478
16584W        W58595   2.069  24.071   0.378
16585W        W58596   8.859  22.051   2.822
16586W        W58597  20.209  11.634   1.828
16587W        W58598   7.339   7.544  10.492
16588W        W58599   3.579   3.734   8.532
16589W        W58600   4.469  18.584   1.498
16590W        W58601  11.919   3.724  15.212
16591W        W58602  25.329   8.364   1.508
16592W        W58603   7.159   4.024   9.732
16593W        W58604   3.599  15.234   3.242
16594W        W58605   7.709   4.384  14.232
16595W        W58606  22.129  10.364  15.572
16596W        W58607   5.759  13.594  10.002
16597W        W58608   4.119   5.224   0.738
16598W        W58609  22.159  17.824   3.182
16599W        W58610  18.289   2.284   9.082
16600W        W58611  19.819   2.814   3.282
16601W        W58612   8.609  23.361   2.572
16602W        W58613   8.899  17.294  11.012
16603W        W58614  17.329  25.311   9.982
16604W        W58615  19.079   0.434  12.322
16605W        W58616   1.129  25.241  15.752
16606W        W58617  25.369   9.264   8.472
16607W        W58618  19.339   5.164   8.262
16608W        W58619  24.969  22.711   1.728
16609W        W58620  16.469   8.374   8.672
16610W        W58621  17.629  17.074   1.698
16611W        W58622   9.629  16.604   8.772
16612W        W58623  16.769  10.074   2.672
16613W        W58624  11.909   8.804   8.942
16614W        W58625  22.829  24.891   3.092
16615W        W58626   8.459  21.841   1.358
16616W        W58627  23.309  19.084   7.862
16617W        W58628   4.539   6.604   1.248
16618W        W58629   7.439  14.954   2.348
16619W        W58630  23.819   0.194   2.158
16620W        W58631   9.919  11.664   3.002
16621W        W58632  15.779   5.624  14.912
16622W        W58633  19.989   1.414  11.472
16623W        W58634  22.179  25.021   0.808
16624W        W58635   7.179  24.551   2.982
16625W        W58636   6.489  17.964  10.292
16626W        W58637   8.239  16.004   2.238
16627W        W58638   5.129  14.064  10.552
16628W        W58639  11.399  18.534   1.478
16629W        W58640  19.849  25.081   0.588
16630W        W58641  15.449  19.214   8.772
16631W        W58642  18.379  12.754  10.692
16632W        W58643  21.509  22.141  11.022
16633W        W58644   9.639   5.264   3.432
16634W        W58645  20.769  17.374   2.642
16635W        W58646  19.109   0.284   9.382
16636W        W58647  23.199   6.694   2.358
16637W        W58648  16.259   9.314   2.278
16638W        W58649   7.859  11.864   9.132
16639W        W58650  10.529   5.224   0.908
16640W        W58651  22.669  20.404   1.228
16641W        W58652  14.719  10.904  14.992
16642W        W58653  14.469  16.614   1.928
16643W        W58654  14.579   6.604   3.732
16644W        W58655  14.799  22.491   9.872
16645W        W58656  15.769  13.214   2.782
16646W        W58657  16.529  19.944   9.912
16647W        W58658  25.039   3.694   0.698
16648W        W58659   5.979   8.794  10.122
16649W        W58660   7.409  24.461   0.518
16650W        W58661  24.419   5.784   2.782
16651W        W58662   3.699  17.754   1.618
16652W        W58663   9.799  17.394  10.382
16653W        W58664   9.749  10.494   2.048
16654W        W58665  22.859   1.694   9.332
16655W        W58666  16.029   8.634   0.858
16656W        W58667  14.039   7.264   3.022
16657W        W58668  15.109   1.174   9.782
16658W        W58669  25.179  20.154  10.132
16659W        W58670  10.529  21.381  10.152
16660W        W58671  22.599   8.184   9.232
16661W        W58672  10.019  15.834   9.232
16662W        W58673  18.429  25.381   8.882
16663W        W58674   2.139   5.414   1.958
16664W        W58675  12.129  21.701  15.362
16665W        W58676   8.399  24.621   2.862
16666W        W58677  20.489  15.614   1.738
16667W        W58678  23.339  15.574   1.098
16668W        W58679  12.169   2.364  14.222
16669W        W58680   7.009  10.094  15.282
16670W        W58681   0.369  25.531  11.342
16671W        W58682   7.209  12.714   8.402
16672W        W58683  11.629   3.264   9.332
16673W        W58684  23.099  12.554   2.048
16674W        W58685   1.789  10.924  15.682
16675W        W58686  14.599   7.414   3.112
16676W        W58687  16.299  24.981   3.892
16677W        W58688   3.799  10.324   2.038
16678W        W58689  12.469  25.491  10.012
16679W        W58690  17.289   1.134   9.592
16680W        W58691   8.229   3.724  14.672
16681W        W58692   7.289  18.404   0.088
16682W        W58693   6.569   8.884  14.872
16683W        W58694  16.379   3.444  15.552
16684W        W58695   8.539  18.274  10.592
16685W        W58696   9.679  24.271  10.232
16686W        W58697  25.149  14.604   8.642
16687W        W58698   3.289  21.194  15.792
16688W        W58699  19.169   8.824   1.178
16689W        W58700  12.829   9.384   4.182
16690W        W58701  13.689  11.294   0.818
16691W        W58702  21.919   5.574  10.622
16692W        W58703   2.259  16.644   7.562
16693W        W58704  16.679  12.154   0.288
16694W        W58705  22.759   8.374   0.438
16695W        W58706   3.219  16.584  11.452
16696W        W58707   7.309  21.401  15.712
16697W        W58708   1.999  22.671   8.432
16698W        W58709  16.049  16.574   7.962
16699W        W58710  10.459   6.614   1.298
16700W        W58711   5.109   7.754   9.082
16701W        W58712  21.759   5.054   1.968
16702W        W58713  15.029   3.744  15.342
16703W        W58714   9.839   7.504  10.512
16704W        W58715  15.679   2.924   1.518
16705W        W58716   2.019   4.024  10.122
16706W        W58717   1.699   6.724   0.658
16707W        W58718   0.309   9.224   9.212
16708W        W58719  16.409   3.514   4.042
16709W        W58720   4.129   8.044  10.252
16710W        W58721   2.589  15.864  10.282
16711W        W58722  21.839   0.994   0.478
16712W        W58723   7.879  11.064  15.132
16713W        W58724   4.929  12.984  11.542
16714W        W58725   6.719  21.324  10.812
16715W        W58726   1.379   9.204   2.842
16716W        W58727  18.879  23.761   2.632
16717W        W58728   3.819   9.124  14.902
16718W        W58729  14.229  10.134  10.292
16719W        W58730   9.419  19.554   0.238
16720W        W58731  18.139  10.114   1.998
16721W        W58732  17.759  22.961   8.782
16722W        W58733   8.989  11.834   0.028
16723W        W58734  17.009  11.874   8.302
16724W        W58735  23.499   9.844   0.828
16725W        W58736  15.799  19.624   9.052
16726W        W58737  12.259  22.991  10.242
16727W        W58738  14.589  12.484   3.822
16728W        W58739  18.649  14.934   2.962
16729W        W58740  16.489  10.234   3.652
16730W        W58741  20.199   9.284  11.062
16731W        W58742  21.849   8.834  10.512
16732W        W58743   5.359   2.754   3.122
16733W        W58744  17.059  22.981   3.072
16734W        W58745   9.139  19.964   0.078
16735W        W58746   1.239  19.374   9.142
16736W        W58747  13.289  13.394   9.972
16737W        W58748  10.279   8.914   3.562
16738W        W58749  20.749  22.021   2.188
16739W        W58750   6.339  23.501   1.668
16740W        W58751  18.799  15.494   2.258
16741W        W58752   9.639   8.124   3.662
16742W        W58753   0.439  15.514  11.172
16743W        W58754  14.659  24.541   0.888
16744W        W58755   4.819   2.614   3.182
16745W        W58756  15.539  23.681  10.392
16746W        W58757   3.189  21.961  11.402
16747W        W58758  16.769  10.074   2.118
16748W        W58759  15.659  17.294   2.522
16749W        W58760  13.989   7.814   9.712
16750W        W58761   1.549  18.194   9.792
16751W        W58762   9.929  13.474  15.692
16752W        W58763  18.469   7.714   0.138
16753W        W58764  21.789  21.124   8.372
16754W        W58765   0.609  23.761  10.052
16755W        W58766   3.799   4.414   6.782
16756W        W58767  25.259  15.544  10.512
16757W        W58768  22.189  18.064   1.438
16758W        W58769   2.429  18.714   0.908
16759W        W58770  15.979   5.394   0.498
16760W        W58771  24.469   4.334   9.162
16761W        W58772  17.979  10.194  10.022
16762W        W58773  10.649  20.524  14.692
16763W        W58774  22.069   2.634   7.812
16764W        W58775   7.899   5.454   1.728
16765W        W58776   9.649  17.734  15.722
16766W        W58777  15.199  13.144  15.392
16767W        W58778   7.269   8.804   9.352
16768W        W58779  18.739  11.374  10.642
16769W        W58780  21.569  16.124   0.848
16770W        W58781   4.269  10.544   0.368
16771W        W58782  15.749  11.894   0.168
16772W        W58783  15.599   6.364  10.152
16773W        W58784  18.739  13.524   1.948
16774W        W58785  11.069   2.814   9.662
16775W        W58786  18.949  22.361   8.492
16776W        W58787  11.629  17.504   0.578
16777W        W58788   8.629   7.974   8.292
16778W        W58789  23.959  14.924   3.122
16779W        W58790   9.259  21.701  10.482
16780W        W58791  13.319   2.884   2.952
16781W        W58792  22.459  22.651   1.918
16782W        W58793  10.529   7.974   3.102
16783W        W58794  25.399  21.561   2.448
16784W        W58795  10.459   2.794   0.138
16785W        W58796  22.019  13.344   7.272
16786W        W58797  12.419   1.484   2.408
16787W        W58798  12.069  20.354   3.042
16788W        W58799   4.669  18.794   4.302
16789W        W58800   7.419   8.244   3.332
16790W        W58801  23.009  14.064  10.972
16791W        W58802  10.159  11.074  14.642
16792W        W58803  10.339   2.804   0.998
16793W        W58804   1.799  12.644   8.112
16794W        W58805  24.459   9.804   1.608
16795W        W58806   3.499  16.364  10.242
16796W        W58807  13.489  23.531   0.408
16797W        W58808  20.979  24.791   1.528
16798W        W58809   4.489  23.131  15.682
16799W        W58810   9.169   5.044   3.032
16800W        W58811  11.369   1.444   3.552
16801W        W58812  19.219   5.994   0.288
16802W        W58813   7.299   0.894   0.128
16803W        W58814  12.549  20.674   0.988
16804W        W58815   8.279  21.014   0.058
16805W        W58816   3.739  15.704   2.932
16806W        W58817  15.879   2.364   9.232
16807W        W58818   4.379  22.631   8.752
16808W        W58819  16.799   3.264  10.772
16809W        W58820  24.789  18.434   0.638
16810W        W58821  15.269  18.904  11.782
16811W        W58822  22.069  15.364   9.342
16812W        W58823  23.459  24.921   7.502
16813W        W58824  10.729  20.874   3.422
16814W        W58825   1.979   0.584   0.658
16815W        W58826   2.879  14.194   2.842
16816W        W58827  12.209   3.374  10.122
16817W        W58828   1.739  21.971   1.128
16818W        W58829   4.309  10.674   8.752
16819W        W58830  21.439   6.194   9.202
16820W        W58831  11.459   2.494   0.628
16821W        W58832   3.289  22.321   1.888
16822W        W58833  12.369   3.544   1.368
16823W        W58834   9.599   1.844   3.962
16824W        W58835  12.239   9.614   9.652
16825W        W58836  24.379  14.824   2.088
16826W        W58837  11.539   3.074  15.322
16827W        W58838  19.899   2.994   2.398
16828W        W58839  24.139  24.801   3.432
16829W        W58840   3.399  18.754   4.442
16830W        W58841  20.279  15.224   8.882
16831W        W58842  17.139  22.121   3.372
16832W        W58843  10.129  20.564   2.732
16833W        W58844  21.149   3.374   1.678
16834W        W58845   8.999  19.364   2.582
16835W        W58846  21.059  10.634  12.042
16836W        W58847  18.519  18.474   7.622
16837W        W58848  19.679   5.804   7.852
16838W        W58849  15.739   0.094  10.742
16839W        W58850  14.039  12.364  15.662
16840W        W58851   1.379  12.154  11.142
16841W        W58852   6.479  18.584   8.532
16842W        W58853   6.109  22.741   8.592
16843W        W58854   8.439  20.104   0.648
16844W        W58855   5.189  17.324   3.712
16845W        W58856  21.879  18.194  10.062
16846W        W58857  10.279   1.694   3.652
16847W        W58858  17.329  16.714   0.298
16848W        W58859   2.899   3.454   2.552
16849W        W58860  19.099  22.881  11.082
16850W        W58861   3.839  18.154   0.468
16851W        W58862  13.759   4.804   0.208
16852W        W58863  12.429  14.934   3.132
16853W        W58864   7.869  16.074   2.742
16854W        W58865  23.109  17.044   8.882
16855W        W58866  23.409  13.044  11.422
16856W        W58867  22.239   3.674   8.782
16857W        W58868  12.589   7.884   2.942
16858W        W58869  24.019  17.964   7.982
16859W        W58870  22.619  11.694   2.048
16860W        W58871  14.689  14.894   1.208
16861W        W58872  13.739  17.674   0.118
16862W        W58873  15.049   6.054   2.502
16863W        W58874  13.719  19.484  11.292
16864W        W58875  14.259  12.014  14.482
16865W        W58876  22.539  13.774   9.542
16866W        W58877  16.049   4.964   2.662
16867W        W58878  18.069   8.014   3.232
16868W        W58879   5.609  12.844   7.282
16869W        W58880  21.059  12.934   1.298
16870W        W58881  10.739  20.124   8.912
16871W        W58882  19.339  13.874   1.418
16872W        W58883  19.629  16.174  11.602
16873W        W58884  16.359  25.101   9.802
16874W        W58885  24.639  15.584   9.382
16875W        W58886  20.749   2.324  10.522
16876W        W58887  10.939   6.674   8.772
16877W        W58888  14.019   6.924  14.422
16878W        W58889  16.789   0.724  15.852
16879W        W58890  25.199  23.661  10.052
16880W        W58891  10.979  25.071   2.208
16881W        W58892  24.519   4.264   0.378
16882W        W58893   7.609  19.984   0.868
16883W        W58894   2.979   6.644   9.112
16884W        W58895  10.739   9.304   1.118
16885W        W58896  17.809   8.094   2.308
16886W        W58897   1.149  21.194  15.082
16887W        W58898   0.129  15.954   3.052
16888W        W58899  13.589  13.534   4.272
16889W        W58900   4.639  19.494   2.942
16890W        W58901  11.129   9.244  14.502
16891W        W58902   4.549   1.644   9.702
16892W        W58903  12.049  23.951  10.672
16893W        W58904  10.169  12.744   3.772
16894W        W58905  22.439  10.444   1.368
16895W        W58906  15.769  17.964   0.558
16896W        W58907   0.001  15.604   1.028
16897W        W58908   1.059  16.464   0.468
16898W        W58909  16.319  18.384  15.702
16899W        W58910  21.399  21.561   2.398
16900W        W58911   0.979  20.194   1.318
16901W        W58912  19.319  10.324   9.732
16902W        W58913  10.459  14.744   1.248
16903W        W58914  24.699  18.974   2.502
16904W        W58915   9.149  12.734  15.462
16905W        W58916  21.639   5.894   1.988
16906W        W58917   0.051  19.314   2.338
16907W        W58918  22.999   1.734  10.112
16908W        W58919   9.919   1.474   9.862
16909W        W58920  23.799  10.574   2.842
16910W        W58921   4.239  20.654   0.578
16911W        W58922  18.569   2.514   3.882
16912W        W58923  25.459   0.894   8.662
16913W        W58924  14.089  19.924  10.542
16914W        W58925  12.689   3.494  10.412
16915W        W58926   0.849  24.321   8.272
16916W        W58927  11.639   6.204  15.732
16917W        W58928  11.619  18.074   0.578
16918W        W58929  23.239   9.744   9.872
16919W        W58930   6.279  17.774   4.562
16920W        W58931  21.639  23.611   3.122
16921W        W58932  18.029  21.284  10.322
16922W        W58933  23.349  14.294  11.252
16923W        W58934  12.299  19.054  15.052
16924W        W58935   1.569   5.924  10.972
16925W        W58936   4.559  14.254   9.052
16926W        W58937  14.999   8.074  10.292
16927W        W58938   0.889   7.184   0.218
16928W        W58939  20.319   2.904   3.362
16929W        W58940  21.729  18.144   1.258
16930W        W58941   7.709  23.641   1.478
16931W        W58942  17.829   4.104  10.782
16932W        W58943  12.739  20.924   0.588
16933W        W58944  11.139  17.954   4.112
16934W        W58945   4.159   8.934   1.718
16935W        W58946  21.269   3.654   9.552
16936W        W58947  10.989  11.834   2.288
16937W        W58948  22.079  11.454  11.372
16938W        W58949   1.929   1.474   8.932
16939W        W58950  12.049   6.824  15.152
16940W        W58951   2.909  13.374   9.792
16941W        W58952   6.949   8.264   3.052
16942W        W58953  25.579  15.774   2.522
16943W        W58954  20.269  10.934  10.602
16944W        W58955  16.349  18.064   2.862
16945W        W58956  12.149  19.584   1.848
16946W        W58957  15.699  13.894   3.452
16947W        W58958  25.489  19.164   7.772
16948W        W58959   6.089  11.994   9.842
16949W        W58960  17.739  17.174  10.352
16950W        W58961  23.069  23.481  10.742
16951W        W58962  19.099  19.734   0.928
16952W        W58963   7.029  19.254   8.842
16953W        W58964  11.869   3.794  14.722
16954W        W58965  22.219   2.554   2.862
16955W        W58966   6.959  13.394   0.288
16956W        W58967  12.409   0.534   2.358
16957W        W58968  21.599   3.964   0.588
16958W        W58969  17.239  18.124   0.758
16959W        W58970   1.259  25.411   2.348
16960W        W58971   6.579  22.651   9.332
16961W        W58972  22.359  25.591  11.582
16962W        W58973  19.339  19.794   1.338
16963W        W58974   5.559  25.251   1.968
16964W        W58975   3.819   8.684   9.422
16965W        W58976   4.839   7.534   1.548
16966W        W58977  12.709  23.951   9.082
16967W        W58978   8.329   5.364   8.662
16968W        W58979   4.479   7.894   8.432
16969W        W58980   8.939  24.701  10.692
16970W        W58981  15.669   1.974  11.012
16971W        W58982  20.299   1.244  10.182
16972W        W58983   9.579   5.314   2.098
16973W        W58984   2.979  15.514  10.122
16974W        W58985  13.979  14.574  15.032
16975W        W58986  12.749  20.564   0.268
16976W        W58987  11.589   7.714   3.042
16977W        W58988   9.219   1.074   9.422
16978W        W58989   1.669   0.264   8.572
16979W        W58990  21.039  16.764   9.992
16980W        W58991  13.169  17.114   1.568
16981W        W58992  11.579   3.744   1.388
16982W        W58993   2.739  13.324   0.188
16983W        W58994  25.359   8.834   8.132
16984W        W58995   2.979   7.804   9.672
16985W        W58996   2.629   3.054   1.468
16986W        W58997   9.199  10.534   1.238
16987W        W58998   5.039  24.541   1.738
16988W        W58999  19.909  19.744  15.862
16989W        W59000  11.699   2.024  15.752
16990W        W59001  13.969  24.551   9.272
16991W        W59002   0.189   8.974  15.642
16992W        W59003  15.289   4.694  11.282
16993W        W59004  13.389  18.244   8.722
16994W        W59005  18.989  19.024   7.772
16995W        W59006   1.929  16.824   1.168
16996W        W59007   0.829  12.944   8.982
16997W        W59008  16.759  21.184  11.162
16998W        W59009  24.689   8.394   7.682
16999W        W59010   5.989  25.381   3.472
17000W        W59011  24.419   4.844  11.682
17001W        W59012   6.819  20.444  10.942
17002W        W59013  15.549   7.604  15.482
17003W        W59014  10.989  10.864   1.378
17004W        W59015   6.039   1.494  10.282
17005W        W59016   5.369   0.114   7.322
17006W        W59017  25.039  12.734   1.358
17007W        W59018  14.089  18.174  11.152
17008W        W59019  13.309  21.661  11.302
17009W        W59020  20.399   0.894   3.102
17010W        W59021  24.889  17.064   0.788
17011W        W59022  19.289   9.204  10.482
17012W        W59023   9.989   5.654  10.402
17013W        W59024  15.539  22.621   9.762
17014W        W59025   2.479  12.044  15.502
17015W        W59026   5.369  18.794  10.102
17016W        W59027  17.529   9.144   3.702
17017W        W59028  13.819  19.284  14.662
17018W        W59029  13.289   6.654   8.972
17019W        W59030   7.709  17.644   7.092
17020W        W59031  19.069   3.234   3.672
17021W        W59032   8.259   8.664  15.462
17022W        W59033   8.909  19.134  15.562
17023W        W59034   0.669   3.714  10.172
17024W        W59035  15.379  12.024   0.568
17025W        W59036   1.829  23.251   2.522
17026W        W59037  19.889   8.264  15.662
17027W        W59038  14.479   4.894  14.682
17028W        W59039  12.559  18.184  14.022
17029W        W59040  20.789  20.274  11.982
17030W        W59041  22.799  12.984   2.108
17031W        W59042   7.659  23.661   0.528
17032W        W59043  18.859   7.154   9.882
17033W        W59044   8.449  18.524   0.978
17034W        W59045  17.099  13.874   2.882
17035W        W59046  20.759  10.114   0.208
17036W        W59047  10.129   9.064   8.092
17037W        W59048   6.469   7.754   0.748
17038W        W59049  19.269  11.414   9.532
17039W        W59050   2.939  14.134   8.812
17040W        W59051  19.039  21.184   7.742
17041W        W59052  12.519  14.014   4.912
17042W        W59053   0.719  16.584   8.072
17043W        W59054  12.469  24.301   0.868
17044W        W59055  20.919  15.514  10.712
17045W        W59056   2.249  21.721   1.648
17046W        W59057  10.949  12.344   4.142
17047W        W59058  18.379   0.774   2.038
17048W        W59059  24.699  13.044  11.792
17049W        W59060  19.569   1.224  12.262
17050W        W59061  12.409  12.514  13.902
17051W        W59062  10.559   8.394  15.652
17052W        W59063  23.189  11.384   1.978
17053W        W59064  24.479   6.364   3.442
17054W        W59065  18.339   6.114   1.618
17055W        W59066   7.669   3.074   1.118
17056W        W59067  11.699  10.974   1.028
17057W        W59068   9.469   4.064   1.008
17058W        W59069  24.009  19.574   2.672
17059W        W59070   1.599   8.694   9.302
17060W        W59071  19.109   3.244   1.598
17061W        W59072   9.799  11.634   1.658
17062W        W59073  19.899  21.361   8.802
17063W        W59074   0.669  19.714   2.762
17064W        W59075   5.029   2.514   2.752
17065W        W59076  23.779   7.764   0.728
17066W        W59077  10.949  15.204   0.828
17067W        W59078   3.439   0.244   9.092
17068W        W59079   7.359  19.204   4.552
17069W        W59080   4.369  24.261  10.532
17070W        W59081   4.499  11.154   7.702
17071W        W59082  23.699  10.354   0.748
17072W        W59083  23.619  23.211   1.188
17073W        W59084   3.889  21.581   9.632
17074W        W59085   2.209  24.821   4.282
17075W        W59086  10.289  10.424   1.048
17076W        W59087  23.389  15.524   2.912
17077W        W59088  18.489  22.091  15.852
17078W        W59089  17.299  17.914   1.578
17079W        W59090  13.469  19.354   0.238
17080W        W59091  18.459  21.601  10.102
17081W        W59092   8.269  17.604   1.258
17082W        W59093  16.729  25.331  11.272
17083W        W59094  19.479  15.974   9.642
17084W        W59095   1.649  20.004   1.208
17085W        W59096   4.719   2.634   8.702
17086W        W59097  17.749   2.964  10.022
17087W        W59098   0.159  20.624  10.572
17088W        W59099   9.389  12.144   8.252
17089W        W59100   8.209  17.654  14.512
17090W        W59101  10.159  20.714  15.032
17091W        W59102   1.729  12.454   0.238
17092W        W59103  10.439  22.981   1.778
17093W        W59104  11.409   9.394   2.358
17094W        W59105  25.179   5.244  10.702
17095W        W59106   2.489   6.124  11.072
17096W        W59107  14.239   1.264   4.152
17097W        W59108  23.799  17.454   8.892
17098W        W59109  18.249   0.904  11.172
17099W        W59110   9.899  14.684   9.842
17100W        W59111  17.689  24.771   1.318
17101W        W59112  15.279   6.584   4.922
17102W        W59113  24.739   9.204   0.538
17103W        W59114  23.589   4.724   0.518
17104W        W59115   8.149  11.364   0.138
17105W        W59116  21.439   4.634  10.952
17106W        W59117  20.839   9.914   9.192
17107W        W59118  12.429   7.834   7.882
17108W        W59119  21.899   4.154  10.142
17109W        W59120   0.739  13.494  12.152
17110W        W59121  14.559   4.764   0.498
17111W        W59122  10.309  16.344   1.958
17112W        W59123  17.449   3.844   3.852
17113W        W59124  14.489  21.441   1.478
17114W        W59125  25.009  11.864   9.452
17115W        W59126   1.839  16.934   1.598
17116W        W59127  23.069   9.224   2.792
17117W        W59128   6.879  19.734   1.008
17118W        W59129  24.799   5.544   0.728
17119W        W59130  17.049  19.964  11.082
17120W        W59131  11.749   3.484  10.082
17121W        W59132   0.429   6.254   1.958
17122W        W59133   0.609   8.314   2.358
17123W        W59134   8.189  25.531   9.862
17124W        W59135   0.269  11.974   9.442
17125W        W59136  23.679   8.384   2.752
17126W        W59137  25.449   2.364  10.062
17127W        W59138   5.809   9.034   9.152
17128W        W59139  13.599  13.794   4.742
17129W        W59140  16.229   7.584   1.858
17130W        W59141   4.769  19.134   3.412
17131W        W59142  16.609  15.664   0.048
17132W        W59143   9.909  10.764   9.752
17133W        W59144   8.409  15.234   1.878
17134W        W59145  10.609   9.414  11.282
17135W        W59146   9.519  19.874   4.202
17136W        W59147   1.089  24.581   3.492
17137W        W59148  20.999   7.774   1.028
17138W        W59149   2.859   8.444   6.902
17139W        W59150   0.209  24.001   2.812
17140W        W59151  16.039   9.754   2.438
17141W        W59152  19.379  10.774   8.902
17142W        W59153  24.699   2.804  11.502
17143W        W59154  20.999  16.984   8.392
17144W        W59155  13.779  14.514   4.492
17145W        W59156  20.569  25.591   3.652
17146W        W59157   5.759  21.244  10.362
17147W        W59158  17.639  11.424  11.132
17148W        W59159  19.269  11.064   7.342
17149W        W59160   1.229  16.134   1.968
17150W        W59161  10.009   4.934   0.008
17151W        W59162   5.079   9.154   9.162
17152W        W59163   3.329   8.664  11.792
17153W        W59164   4.169   3.554   2.268
17154W        W59165  11.669   5.604  14.772
17155W        W59166  13.649  10.784  10.512
17156W        W59167   7.509  13.604   9.872
17157W        W59168  21.309  14.614   9.782
17158W        W59169   7.279   2.334   2.912
17159W        W59170   8.959   2.074  11.112
17160W        W59171  24.239   1.974  10.172
17161W        W59172   9.929  15.704   4.842
17162W        W59173  15.039  15.494   3.892
17163W        W59174  19.489  10.484  11.122
17164W        W59175  17.059  15.764  10.342
17165W        W59176  15.689  11.594   9.482
17166W        W59177  15.219   0.254   2.522
17167W        W59178  22.039   0.874  10.922
17168W        W59179  10.299  15.854  14.782
17169W        W59180  15.279   1.964   3.262
17170W        W59181  17.499   2.724  14.832
17171W        W59182  13.159  19.064   3.042
17172W        W59183  16.159   8.904   2.622
17173W        W59184  11.249  10.004   3.152
17174W        W59185   9.059   7.514   1.918
17175W        W59186  25.439  21.891   8.852
17176W        W59187  25.289   4.724   6.292
17177W        W59188  14.239  16.524   3.262
17178W        W59189   3.619   2.364  11.502
17179W        W59190   4.089  13.754   6.942
17180W        W59191   8.359  17.404   3.772
17181W        W59192  10.869   0.354   1.358
17182W        W59193  11.799  18.804   1.878
17183W        W59194   9.889  11.414   8.772
17184W        W59195   8.279   2.414  14.952
17185W        W59196   1.569  18.784   7.992
17186W        W59197  11.289   9.104   0.698
17187W        W59198   3.839  23.691   0.688
17188W        W59199  19.659  16.394   0.188
17189W        W59200   4.769  24.801   2.542
17190W        W59201  13.759  15.964   4.512
17191W        W59202  11.469  24.001   4.752
17192W        W59203  17.469  24.391   2.238
17193W        W59204  17.719  20.884   3.582
17194W        W59205   3.549  22.121   2.298
17195W        W59206   0.879  25.381   2.742
17196W        W59207  11.279  16.644   9.172
17197W        W59208  15.819  11.714   8.992
17198W        W59209  20.449  16.404   8.082
17199W        W59210  12.249   3.994   9.252
17200W        W59211  12.689   6.174   0.798
17201W        W59212   1.749  12.694   1.658
17202W        W59213   5.039   1.934   9.162
17203W        W59214  10.849   4.194   0.868
17204W        W59215  21.849  20.864  10.232
17205W        W59216   9.299  14.524   1.628
17206W        W59217  17.739   8.024  10.682
17207W        W59218  15.359   1.114   2.732
17208W        W59219   7.759   8.964  15.382
17209W        W59220  23.549  12.254   2.088
17210W        W59221  13.709  22.401   2.942
17211W        W59222   4.279  25.211  11.032
17212W        W59223  15.849  11.454   1.648
17213W        W59224   8.339  11.964   2.318
17214W        W59225   1.329  20.844   0.788
17215W        W59226   3.259   6.964   9.952
17216W        W59227  12.349  18.764   2.522
17217W        W59228  19.999  12.374   8.622
17218W        W59229  23.269  16.894   3.092
17219W        W59230  21.149  24.681  11.032
17220W        W59231  15.059  14.234   5.062
17221W        W59232  12.109  24.501   9.772
17222W        W59233   8.759   7.064   0.978
17223W        W59234   5.549   2.734   8.392
17224W        W59235  14.289   5.404   3.672
17225W        W59236  14.689  18.614  15.662
17226W        W59237  22.879  16.504   8.202
17227W        W59238   0.599  14.364   3.602
17228W        W59239   5.449   9.234   9.522
17229W        W59240   9.359   4.954   4.622
17230W        W59241   8.989  24.541   2.752
17231W        W59242  22.699  17.724  11.712
17232W        W59243  18.829  14.564   0.508
17233W        W59244  16.849   2.294   2.418
17234W        W59245   3.579   1.774   9.142
17235W        W59246  16.699  24.761   9.622
17236W        W59247  14.959  19.824   8.412
17237W        W59248  11.139   3.054   8.022
17238W        W59249  24.939  14.324   2.562
17239W        W59250   9.599  11.394   2.048
17240W        W59251  15.619   7.524   3.382
17241W        W59252   9.019  12.814  10.312
17242W        W59253   9.909   3.104   8.512
17243W        W59254   9.679   0.944  14.372
17244W        W59255   1.879   2.514   0.138
17245W        W59256   2.059  22.101   7.442
17246W        W59257   7.209  21.371   1.038
17247W        W59258   7.789  12.494   9.612
17248W        W59259  18.799  21.264  10.952
17249W        W59260  21.159   4.254   7.662
17250W        W59261  21.859   3.384   2.712
17251W        W59262   7.559   7.534   9.692
17252W        W59263  12.539  12.954  15.062
17253W        W59264   8.059   8.874   3.092
17254W        W59265   5.579   3.034   2.238
17255W        W59266   5.409  25.261   0.698
17256W        W59267  18.379   4.594   1.248
17257W        W59268  21.859   2.534   1.278
17258W        W59269   3.199  14.504   2.622
17259W        W59270   3.059  23.711   2.458
17260W        W59271  19.889  15.954   3.472
17261W        W59272   1.259  21.881   0.108
17262W        W59273   1.069  17.944   2.552
17263W        W59274  24.629  21.354   0.978
17264W        W59275   5.779   2.404  10.412
17265W        W59276  20.029  18.124  10.602
17266W        W59277  14.509   4.714   7.962
17267W        W59278  19.509  18.264   2.822
17268W        W59279  16.229  23.611   0.278
17269W        W59280   0.719   8.484   1.128
17270W        W59281  19.749   3.214   8.382
17271W        W59282  18.999  22.101   0.718
17272W        W59283   7.269  23.531   1.248
17273W        W59284  10.559  14.014   4.752
17274W        W59285  10.579  19.104  15.002
17275W        W59286  12.489  20.124   2.982
17276W        W59287   5.309  20.804  15.452
17277W        W59288  17.849   1.714   9.302
17278W        W59289  21.589  17.274  12.412
17279W        W59290  15.629  11.484   3.982
17280W        W59291  12.889  15.494   0.778
17281W        W59292   8.109  17.164   2.118
17282W        W59293  21.379  10.144   9.032
17283W        W59294  17.139  24.461   9.722
17284W        W59295   7.049  22.461   2.408
17285W        W59296  13.899   2.054  10.372
17286W        W59297  25.399  23.341   2.478
17287W        W59298  15.489   7.764   2.862
17288W        W59299  20.749  15.064  10.822
17289W        W59300   3.209  11.984   9.112
17290W        W59301   7.379  17.324   2.982
17291W        W59302  13.059  20.904   2.542
17292W        W59303   3.519   6.224   8.082
17293W        W59304   0.259  14.774   7.582
17294W        W59305  10.169  17.204   0.818
17295W        W59306   3.879  19.004   3.682
17296W        W59307   9.349   7.664  10.532
17297W        W59308   6.829  14.234   1.078
17298W        W59309  19.589  17.164   8.242
17299W        W59310   0.349   6.884   8.422
17300W        W59311  16.529   7.964   9.422
17301W        W59312  20.469  21.891   1.668
17302W        W59313  19.229  21.441  15.122
17303W        W59314   7.339   7.774   8.322
17304W        W59315  19.299   3.234   4.072
17305W        W59316   9.589   5.444   0.548
17306W        W59317   5.389  12.704   8.612
17307W        W59318  21.789   7.814   1.438
17308W        W59319   9.269  11.564   2.438
17309W        W59320  23.119  20.734  12.242
17310W        W59321  21.189  10.734   8.152
17311W        W59322  17.529  25.381  10.472
17312W        W59323  11.709  23.381   2.248
17313W        W59324   0.929  16.854  11.752
17314W        W59325  16.389  22.221   1.998
17315W        W59326   7.189  16.944   3.282
17316W        W59327  19.229  16.554  11.472
17317W        W59328   1.749  15.554   2.308
17318W        W59329   5.179  17.284   8.812
17319W        W59330  23.819  17.474   2.732
17320W        W59331  22.849   5.384   3.142
17321W        W59332  18.199  22.241  10.812
17322W        W59333  14.579   0.764   3.762
17323W        W59334  11.389  10.824   4.402
17324W        W59335   8.919  13.544   4.252
17325W        W59336  19.209  14.444   2.812
17326W        W59337  24.669  22.631   2.672
17327W        W59338  19.059  11.884  11.042
17328W        W59339  12.499   0.734   3.852
17329W        W59340  11.479   5.554   2.582
17330W        W59341   5.759   3.714   9.702
17331W        W59342  22.009   2.054   1.518
17332W        W59343  19.479  16.304  10.032
17333W        W59344  16.809  13.774   9.592
17334W        W59345  10.019  21.511   9.352
17335W        W59346   4.589   3.364  14.632
17336W        W59347  20.299   0.134  10.862
17337W        W59348   6.039   3.454   8.782
17338W        W59349   8.959   9.044   1.318
17339W        W59350   9.449   8.454   2.098
17340W        W59351   6.329   9.694   0.368
17341W        W59352   9.539   2.814   8.342
17342W        W59353  18.329   7.914   1.498
17343W        W59354   6.199   7.274   0.148
17344W        W59355   9.819   6.134   9.522
17345W        W59356  16.619   1.824  10.572
17346W        W59357  14.049   4.594  11.102
17347W        W59358  18.909  23.521   0.398
17348W        W59359  13.429  18.054  10.882
17349W        W59360  22.269   9.154   1.778
17350W        W59361   1.159   9.314   9.912
17351W        W59362   4.349   4.144   0.078
17352W        W59363   0.099   2.924   7.052
17353W        W59364  19.409  21.481   3.192
17354W        W59365  14.269  22.181   2.832
17355W        W59366  22.709   7.644   2.338
17356W        W59367  10.579  12.444   0.378
17357W        W59368  11.289   7.914   2.188
17358W        W59369  10.709   0.254  14.372
17359W        W59370  15.139  10.814  15.322
17360W        W59371   9.749   5.654  14.602
17361W        W59372  17.729   5.634   9.392
17362W        W59373  11.879   4.024   1.098
17363W        W59374  14.689  21.931  15.652
17364W        W59375   6.169   6.464   0.618
17365W        W59376   5.609  19.774   0.518
17366W        W59377  20.749   9.584   1.418
17367W        W59378   1.969  14.874   8.872
17368W        W59379   7.049   2.774   2.762
17369W        W59380   0.389   9.344   1.148
17370W        W59381  14.359   7.454   8.962
17371W        W59382  22.449  14.534   3.302
17372W        W59383  12.889  20.494   1.668
17373W        W59384  24.959  20.734   8.432
17374W        W59385   6.809  19.224   0.438
17375W        W59386  17.549   6.494  14.572
17376W        W59387  10.129   7.864  10.752
17377W        W59388   7.429  10.924  15.282
17378W        W59389   3.499  25.271   1.518
17379W        W59390  16.589   3.424  15.072
17380W        W59391   3.019  11.534   1.828
17381W        W59392   1.559  10.304   8.642
17382W        W59393  21.829  23.761   7.702
17383W        W59394   2.839  19.504   9.142
17384W        W59395   1.349   6.674   9.842
17385W        W59396   4.609   9.604   8.172
17386W        W59397  19.769  14.774   1.258
17387W        W59398  24.609  10.804   2.742
17388W        W59399  15.359   6.324   9.512
17389W        W59400  22.829  22.411   1.608
17390W        W59401   5.799  10.844  15.652
17391W        W59402   5.619  25.201   2.922
17392W        W59403   8.569   0.274   0.608
17393W        W59404   3.339   3.514   9.122
17394W        W59405   3.059  18.774   9.012
17395W        W59406   0.719   4.574   2.872
17396W        W59407  19.699   3.604   8.722
17397W        W59408  10.709  22.611   3.862
17398W        W59409   8.299  19.264   1.368
17399W        W59410   1.249  17.244  11.692
17400W        W59411   5.479  13.204   0.228
17401W        W59412  17.329   5.134  10.172
17402W        W59413   2.679  24.931   8.082
17403W        W59414   8.279  14.604   1.468
17404W        W59415   3.919  12.214  11.262
17405W        W59416  24.079  12.124   2.408
17406W        W59417   9.169   2.544   8.982
17407W        W59418   3.799   6.584   9.782
17408W        W59419   0.349   5.694   2.842
17409W        W59420  21.969   7.984   8.112
17410W        W59421  18.909  14.494  15.432
17411W        W59422  13.889  18.744  15.752
17412W        W59423  20.899  18.364   3.042
17413W        W59424   3.539   5.644   1.208
17414W        W59425  18.579  15.324   9.132
17415W        W59426   5.949   4.484   3.382
17416W        W59427  24.799   3.404  15.392
17417W        W59428  12.739   8.344  15.752
17418W        W59429   7.079   7.944  15.642
17419W        W59430  19.339  11.224   8.542
17420W        W59431  12.849  14.444   3.452
17421W        W59432   2.709  16.444   7.522
17422W        W59433  20.009  20.024   7.842
17423W        W59434  21.029  13.564   2.642
17424W        W59435   1.289   7.554   1.518
17425W        W59436   3.829  21.054   8.312
17426W        W59437  15.919  14.924   2.872
17427W        W59438   6.389  25.411   2.468
17428W        W59439   9.299  22.601  15.822
17429W        W59440  22.049  15.894   9.602
17430W        W59441   7.379   4.994  14.762
17431W        W59442   6.669  12.204   3.742
17432W        W59443  22.169  23.821  11.502
17433W        W59444  21.669  19.784   6.722
17434W        W59445   2.869  16.674  10.462
17435W        W59446  10.139  23.401   2.682
17436W        W59447  24.129  22.321   0.208
17437W        W59448  24.329  20.264  12.352
17438W        W59449   9.289  12.474   1.498
17439W        W59450  19.129   0.454   8.492
17440W        W59451   1.999   9.124   8.502
17441W        W59452  10.489  23.981  15.422
17442W        W59453   2.899  19.334  11.112
17443W        W59454   3.839   1.734  15.842
17444W        W59455  12.259  25.061   0.178
17445W        W59456  10.679  22.441   1.068
17446W        W59457  20.149  24.531   3.162
17447W        W59458  22.249  19.894  11.472
17448W        W59459  23.619  17.064   2.522
17449W        W59460  19.059  21.314  11.772
17450W        W59461   5.709   2.354   0.688
17451W        W59462  16.289   8.134   2.922
17452W        W59463  24.059  18.444   1.308
17453W        W59464  12.219   1.844  15.402
17454W        W59465   7.789  10.174   2.972
17455W        W59466   1.119  21.521   9.672
17456W        W59467  13.139  21.164   0.438
17457W        W59468  17.449  11.784  15.452
17458W        W59469  14.969  21.721   2.118
17459W        W59470  10.959  25.301   0.638
17460W        W59471  24.179   5.544   1.548
17461W        W59472   7.959   0.424   2.428
17462W        W59473  14.859  13.824   1.838
17463W        W59474   0.259  12.704   9.782
17464W        W59475  17.549   8.214   7.942
17465W        W59476  16.659   8.624   2.982
17466W        W59477   3.259  10.824   1.498
17467W        W59478  20.199  14.914   3.542
17468W        W59479   2.339   0.434   8.192
17469W        W59480  23.749  23.401   9.542
17470W        W59481   0.079  17.534   2.792
17471W        W59482  16.469   2.844  15.872
17472W        W59483  19.549  15.104   3.282
17473W        W59484  18.079   5.704   3.712
17474W        W59485  19.379   7.644   9.442
17475W        W59486  18.859   9.774   4.392
17476W        W59487  16.429  22.771   1.268
17477W        W59488   6.629   8.824  11.192
17478W        W59489   6.199  23.731   2.118
17479W        W59490   1.219   9.774  10.102
17480W        W59491  17.799   1.634   0.048
17481W        W59492  13.229  13.374   0.298
17482W        W59493  12.349  13.144   2.972
17483W        W59494  18.319  25.391   9.772
17484W        W59495  23.229  12.724   3.412
17485W        W59496  14.639   7.924   8.102
17486W        W59497  21.149  21.901  10.052
17487W        W59498  16.959  20.164   0.758
17488W        W59499  10.879  23.891   2.972
17489W        W59500   5.719  23.621   8.962
17490W        W59501   3.359  10.104   1.038
17491W        W59502  14.589  14.254   1.888
17492W        W59503   9.869  16.024   4.372
17493W        W59504  24.389  19.994   9.072
17494W        W59505  15.739  11.624   8.372
17495W        W59506  14.819   3.024   4.592
17496W        W59507  13.659  10.094   2.028
17497W        W59508   8.579  12.824   9.442
17498W        W59509  21.069   1.084   1.038
17499W        W59510   5.009  17.924  10.832
17500W        W59511  19.909  15.504  10.452
17501W        W59512  16.549  20.854  10.862
17502W        W59513   4.109  21.711   8.842
17503W        W59514   1.589   3.994   2.552
17504W        W59515   4.869  16.984   1.118
17505W        W59516  19.569  10.044   1.918
17506W        W59517   1.659   6.104  14.952
17507W        W59518  20.629  24.351   9.722
17508W        W59519   6.499   4.224   8.402
17509W        W59520  15.409   5.654   2.428
17510W        W59521   4.779  20.454  10.362
17511W        W59522  12.919  16.724   1.878
17512W        W59523  11.669   4.194   0.658
17513W        W59524  20.629  15.464   0.458
17514W        W59525  18.739  17.164   8.332
17515W        W59526   5.039   8.064  11.452
17516W        W59527  16.639  19.054   1.198
17517W        W59528  22.049   9.614   0.188
17518W        W59529   7.139  13.524   2.662
17519W        W59530  22.459  24.541   3.122
17520W        W59531  14.279  10.774   2.408
17521W        W59532   5.009  22.881   9.292
17522W        W59533  11.279   4.074   1.098
17523W        W59534   0.259  15.394  10.202
17524W        W59535  17.179   0.614   1.438
17525W        W59536   5.099   9.634   8.262
17526W        W59537   0.149  16.974   8.922
17527W        W59538  21.669   3.954  11.982
17528W        W59539   7.759   7.054  15.182
17529W        W59540  22.379   1.694   9.882
17530W        W59541  23.239  18.714  11.022
17531W        W59542  24.519  20.894   1.898
17532W        W59543  23.619  10.734  10.402
17533W        W59544   2.219  20.454  15.702
17534W        W59545  25.109   5.424   0.388
17535W        W59546  11.299  21.631   9.152
17536W        W59547  24.409  14.324  10.472
17537W        W59548  24.859   8.394   8.682
17538W        W59549  14.969   0.864   9.372
17539W        W59550  16.679  15.044   4.342
17540W        W59551   8.549   8.164   9.362
17541W        W59552   8.589  20.654  11.012
17542W        W59553  16.809  16.494   0.708
17543W        W59554  19.079  13.334   3.402
17544W        W59555  17.949  16.784   8.752
17545W        W59556  19.599  21.214   1.778
17546W        W59557   7.889  18.404  14.792
17547W        W59558  25.279   2.144   0.648
17548W        W59559  19.449  12.644  10.782
17549W        W59560  17.939   7.164  15.652
17550W        W59561  10.529  19.164   9.492
17551W        W59562  19.049  22.561   8.952
17552W        W59563   6.969  24.171   2.148
17553W        W59564  25.289   9.774   8.332
17554W        W59565  21.289   5.944   7.132
17555W        W59566  10.809  14.354   9.972
17556W        W59567   7.429   5.764   2.478
17557W        W59568   0.279  20.574  11.472
17558W        W59569   6.819   3.624   9.662
17559W        W59570  12.739   9.734   0.528
17560W        W59571   9.299  18.304   8.612
17561W        W59572   5.229   3.964   8.362
17562W        W59573   0.899  14.744   3.432
17563W        W59574  21.919  14.044  15.742
17564W        W59575  24.599  17.304   9.942
17565W        W59576   1.889  19.674   1.518
17566W        W59577  15.579   6.994   4.002
17567W        W59578  12.529   3.184   8.222
17568W        W59579  15.989  20.744   9.032
17569W        W59580  18.129   7.044   2.128
17570W        W59581   7.909  15.384  10.472
17571W        W59582  23.519  14.964   8.142
17572W        W59583   4.359  20.114   1.428
17573W        W59584  24.869  20.554   4.112
17574W        W59585  10.729  14.594   4.212
17575W        W59586   7.179   4.444  14.462
17576W        W59587  14.229   6.324   0.438
17577W        W59588  16.689  12.634   8.792
17578W        W59589  19.279   2.074   8.752
17579W        W59590   9.249   8.334   8.822
17580W        W59591  20.949  12.144  10.412
17581W        W59592  18.959  17.984   2.812
17582W        W59593  13.669  13.344  10.332
17583W        W59594  19.519   2.484   9.472
17584W        W59595  12.649   3.994   1.338
17585W        W59596   6.759  12.144   2.572
17586W        W59597  23.609  23.451   7.282
17587W        W59598  15.449  19.564  15.102
17588W        W59599  11.229  22.681   3.032
17589W        W59600  21.719  13.464  10.912
17590W        W59601   0.199   2.024   9.772
17591W        W59602  24.819  16.814  11.972
17592W        W59603   3.879  20.054   8.302
17593W        W59604   9.759   0.014   2.048
17594W        W59605  23.119  21.661   8.462
17595W        W59606   5.139   3.944   3.672
17596W        W59607  22.779   1.094   8.642
17597W        W59608  14.669  20.904   0.038
17598W        W59609   1.949   7.034   9.042
17599W        W59610  20.419  25.441   2.438
17600W        W59611   8.149  24.531   8.502
17601W        W59612   7.259  19.574   1.708
17602W        W59613  23.809  20.344  11.712
17603W        W59614  24.909  22.151   1.448
17604W        W59615   4.539  10.054   8.942
17605W        W59616  11.299  23.751   2.078
17606W        W59617  22.419  19.394   1.688
17607W        W59618   5.489  13.784   1.078
17608W        W59619   4.659  17.254   3.682
17609W        W59620   6.159  11.984   7.322
17610W        W59621  23.399  24.251  15.842
17611W        W59622  25.119  14.984   9.062
17612W        W59623  20.619  11.294   1.838
17613W        W59624  24.039  18.294  12.162
17614W        W59625  23.479  14.874  11.392
17615W        W59626  20.469  20.534   8.452
17616W        W59627  11.409  23.811  10.312
17617W        W59628  15.429  20.594   0.338
17618W        W59629  13.739  19.334  10.012
17619W        W59630   2.099   6.764  14.992
17620W        W59631   9.419   6.944   8.982
17621W        W59632  13.859   7.234   1.928
17622W        W59633  18.109  23.161   8.472
17623W        W59634  18.359  21.511   9.492
17624W        W59635  17.419  24.451   0.238
17625W        W59636  22.649  11.814   1.178
17626W        W59637   6.639   7.994  15.852
17627W        W59638   9.709  14.294  10.772
17628W        W59639   7.119   2.734   3.512
17629W        W59640  21.879  18.554   8.352
17630W        W59641  15.499  17.134   1.418
17631W        W59642  19.979   0.424  11.192
17632W        W59643   3.129  14.664   0.198
17633W        W59644   4.179  14.804   7.572
17634W        W59645  25.079  15.724   7.272
17635W        W59646  13.229  10.764   3.172
17636W        W59647   1.969  17.414   1.598
17637W        W59648  20.169  13.994   8.462
17638W        W59649   5.009  17.884   1.088
17639W        W59650   0.339  18.334   1.068
17640W        W59651  22.549  18.314   1.768
17641W        W59652  12.249  15.994   1.288
17642W        W59653  20.569  23.241   8.342
17643W        W59654  11.739   5.854   3.722
17644W        W59655   2.699   1.554   7.232
17645W        W59656   9.299  24.041  11.132
17646W        W59657   1.649   6.994   9.442
17647W        W59658  22.559  14.774   9.762
17648W        W59659  11.669  22.341   2.148
17649W        W59660  14.169   4.124  11.272
17650W        W59661  18.819   1.344   7.822
17651W        W59662  13.849   6.014  10.442
17652W        W59663  24.529  25.171   2.078
17653W        W59664  20.609  11.874   1.918
17654W        W59665  19.909  10.134   9.452
17655W        W59666  22.599   2.494   0.018
17656W        W59667  20.989  21.244   0.068
17657W        W59668  12.059  14.094   4.972
17658W        W59669  22.539   8.564   8.102
17659W        W59670   2.729  25.321  11.102
17660W        W59671  17.439  18.264   0.268
17661W        W59672  23.859  21.801  10.582
17662W        W59673  19.189   2.014   3.522
17663W        W59674  24.739  18.414  10.762
17664W        W59675  12.479  19.064   4.362
17665W        W59676  12.469   5.344   9.792
17666W        W59677   0.419  15.684   2.378
17667W        W59678   1.289  19.234  15.612
17668W        W59679  11.939  24.821  10.172
17669W        W59680   8.559  18.834  15.382
17670W        W59681   6.639   3.344   1.958
17671W        W59682  16.059  25.251   8.952
17672W        W59683  19.419  15.764  10.722
17673W        W59684   9.999  21.411   2.712
17674W        W59685   2.199  18.004   8.132
17675W        W59686  19.629   2.984  10.882
17676W        W59687  16.129  25.401   8.502
17677W        W59688  14.069   9.564  15.122
17678W        W59689  21.799  16.634   9.212
17679W        W59690  22.489   4.944   9.722
17680W        W59691  13.549   4.674   8.132
17681W        W59692  22.099   9.914   0.678
17682W        W59693   0.179  17.024   2.562
17683W        W59694   9.009  21.731   5.102
17684W        W59695   8.329  12.334   7.942
17685W        W59696  17.229  13.454  14.182
17686W        W59697  14.139  15.174   3.132
17687W        W59698  24.269  10.804   9.652
17688W        W59699  11.799   7.434   4.592
17689W        W59700  17.749   5.404   0.088
17690W        W59701  22.309   3.374   0.448
17691W        W59702  10.419  23.121   8.002
17692W        W59703  10.429   9.374  10.572
17693W        W59704   7.419  11.884   2.852
17694W        W59705   2.539  21.861   2.532
17695W        W59706   3.319   4.504   8.492
17696W        W59707  11.259  23.161   2.268
17697W        W59708  16.479   6.814   0.688
17698W        W59709   5.059   4.254   7.212
17699W        W59710  18.909  21.971  11.212
17700W        W59711  16.489  20.304   1.138
17701W        W59712  11.329   7.964   3.992
17702W        W59713  18.619  11.314   8.912
17703W        W59714  21.909  12.744   3.632
17704W        W59715   3.939  10.974   2.038
17705W        W59716  12.929   1.374  10.262
17706W        W59717   7.799  23.621   1.008
17707W        W59718   6.329   1.274  10.922
17708W        W59719   2.789  19.044   9.372
17709W        W59720  13.349  10.774  14.512
17710W        W59721   5.709  10.594   2.268
17711W        W59722  22.479  13.964   1.348
17712W        W59723   0.849  18.254  11.222
17713W        W59724  13.949  17.344   3.492
17714W        W59725   3.689  15.744   3.542
17715W        W59726  18.889  17.904   9.102
17716W        W59727   7.139   7.904   1.228
17717W        W59728  13.669  20.944   3.182
17718W        W59729  11.699  19.774   0.858
17719W        W59730  14.779   1.794  10.522
17720W        W59731  18.739  21.981   3.492
17721W        W59732  21.589   1.534   8.562
17722W        W59733   4.929   6.664   8.672
17723W        W59734   4.559  21.691   2.932
17724W        W59735   0.319  17.394  12.182
17725W        W59736  18.449  15.644  10.082
17726W        W59737  14.829  25.271  11.552
17727W        W59738   6.779   4.134  14.232
17728W        W59739   2.619   7.774   2.158
17729W        W59740  24.839   9.044   9.922
17730W        W59741  16.329  15.714  10.822
17731W        W59742  13.819  22.741   2.038
17732W        W59743  16.899  13.884   0.398
17733W        W59744  13.989  18.474   3.182
17734W        W59745   2.099  15.024   2.178
17735W        W59746   2.179  23.661  10.502
17736W        W59747   3.899   2.544   9.402
17737W        W59748  13.409   4.644   2.298
17738W        W59749  17.069  25.091  12.252
17739W        W59750  22.859   1.034   2.128
17740W        W59751   5.339  16.374  10.302
17741W        W59752  24.869  12.484   8.942
17742W        W59753  11.859  24.971   3.062
17743W        W59754  12.039   0.174  10.032
17744W        W59755   7.159  25.531   2.662
17745W        W59756  15.109   0.984  15.252
17746W        W59757  19.399  18.884   7.552
17747W        W59758  11.179   8.324   0.138
17748W        W59759   3.669   0.384   9.542
17749W        W59760   7.679   3.224   8.512
17750W        W59761  12.489  21.064  11.732
17751W        W59762  16.469   9.204   8.282
17752W        W59763   7.579   3.194   2.018
17753W        W59764  19.269   1.904   9.512
17754W        W59765  15.129   1.814   3.762
17755W        W59766  19.669  21.014  11.012
17756W        W59767  22.209  13.394   0.648
17757W        W59768   6.869  15.874  14.852
17758W        W59769  16.019  15.954   7.882
17759W        W59770  23.529  20.174   9.052
17760W        W59771  11.629  12.434  10.222
17761W        W59772  21.909  23.291   7.962
17762W        W59773   7.279   8.884   4.142
17763W        W59774   3.909  25.261   0.598
17764W        W59775  15.579   6.054   9.052
17765W        W59776   8.169  18.814   2.682
17766W        W59777  18.909  16.704   7.612
17767W        W59778  14.749  13.224   2.732
17768W        W59779  24.419   2.834   1.408
17769W        W59780  20.539  23.321  12.852
17770W        W59781   1.679  20.914   9.822
17771W        W59782  15.579   3.354  15.482
17772W        W59783  13.169   7.334  10.152
17773W        W59784  16.979   0.034   8.492
17774W        W59785   3.109  16.984   4.032
17775W        W59786  23.289  12.274   9.982
17776W        W59787   3.969   1.864   1.978
17777W        W59788   2.829  22.791   0.058
17778W        W59789  15.729  10.014   4.082
17779W        W59790   1.179   9.034   9.462
17780W        W59791  11.169   3.794   2.532
17781W        W59792  19.969   7.624   0.028
17782W        W59793   5.749   2.184   7.612
17783W        W59794   6.539  13.814   0.928
17784W        W59795  22.319  14.284   2.812
17785W        W59796   0.001   7.604   6.902
17786W        W59797  14.039   1.304   1.278
17787W        W59798  17.559  15.894  10.232
17788W        W59799  25.309  20.524   1.488
17789W        W59800  16.349  14.274   3.222
17790W        W59801  22.899   1.604   2.852
17791W        W59802  16.919  13.394   2.982
17792W        W59803  23.009  19.334   2.622
17793W        W59804  12.739  23.441  15.842
17794W        W59805  16.299   6.994   2.882
17795W        W59806   0.639  14.494   2.098
17796W        W59807   5.589   5.604  10.352
17797W        W59808   0.839   7.944   8.192
17798W        W59809  17.039   9.084   3.612
17799W        W59810   1.649   4.804   0.268
17800W        W59811  24.419  25.171   9.072
17801W        W59812   1.909  11.194   9.502
17802W        W59813  23.719  13.784  10.552
17803W        W59814   8.519   9.894  10.342
17804W        W59815  24.679   3.814   0.248
17805W        W59816   9.369  13.854   9.732
17806W        W59817   5.549  24.461   0.038
17807W        W59818   0.599  11.584  12.032
17808W        W59819   5.949   0.734   1.568
17809W        W59820   4.809   6.744   9.912
17810W        W59821   8.709  11.064   8.802
17811W        W59822  21.519  14.224   9.462
17812W        W59823  18.669   6.454   0.128
17813W        W59824  15.369   6.424   2.562
17814W        W59825  12.299   9.674   8.322
17815W        W59826   2.249  21.901   9.162
17816W        W59827   2.109  21.421   9.072
17817W        W59828  11.819  24.941  15.012
17818W        W59829  22.609   9.374   2.622
17819W        W59830   6.239  14.504   3.692
17820W        W59831  23.379  25.121   8.912
17821W        W59832   5.569   2.524   7.102
17822W        W59833   2.439  25.041   7.672
17823W        W59834  23.339   0.504  15.762
17824W        W59835   6.809   0.614   8.802
17825W        W59836  24.269  17.514   3.662
17826W        W59837   6.129   2.434   0.998
17827W        W59838  15.699  20.414   8.522
17828W        W59839  18.799  24.981  10.272
17829W        W59840   8.589  24.711   3.912
17830W        W59841  14.889  11.204   1.358
17831W        W59842  25.349   8.414  10.822
17832W        W59843  15.469  15.724   1.598
17833W        W59844   0.599   9.244  15.842
17834W        W59845   4.069   2.114   2.922
17835W        W59846   1.579  17.954   1.628
17836W        W59847  19.189  22.731   9.412
17837W        W59848   2.709   6.024   8.852
17838W        W59849  24.759  23.031   0.098
17839W        W59850  14.579  18.814   8.752
17840W        W59851  25.029  16.724   7.612
17841W        W59852   4.369  12.534   3.282
17842W        W59853   1.169   5.554   7.372
17843W        W59854   0.779  18.574   3.402
17844W        W59855  13.389  17.494  10.712
17845W        W59856  20.859   8.674  10.592
17846W        W59857  13.639   9.594  10.832
17847W        W59858   0.889  17.634   3.652
17848W        W59859  16.659   5.724   0.208
17849W        W59860   7.079   4.584   2.118
17850W        W59861  11.389   1.014   3.392
17851W        W59862   3.339  17.364  15.282
17852W        W59863  16.999   4.184  10.442
17853W        W59864   0.599   6.704   8.022
17854W        W59865  16.059  13.754  15.662
17855W        W59866   1.309  23.851  11.322
17856W        W59867   2.009   0.094   8.952
17857W        W59868  23.509   8.134   2.188
17858W        W59869  21.189  11.724  10.662
17859W        W59870   1.889   4.354   2.018
17860W        W59871  22.969  21.134   3.282
17861W        W59872  11.449   9.194   8.262
17862W        W59873   9.569   9.574   8.832
17863W        W59874  22.939  20.664   0.488
17864W        W59875  24.299   4.094   8.692
17865W        W59876   3.889   1.394   0.638
17866W        W59877  12.639   4.664  10.582
17867W        W59878  16.969   0.264   1.798
17868W        W59879   8.049  12.834   9.242
17869W        W59880  20.109  18.154   8.992
17870W        W59881  18.339  16.014  11.272
17871W        W59882  14.759   3.364  14.512
17872W        W59883  25.139  16.924  10.252
17873W        W59884   9.159   7.484   2.448
17874W        W59885  13.359  13.914   9.812
17875W        W59886  15.819  14.704   0.518
17876W        W59887  14.149   8.554  10.892
17877W        W59888   3.809  22.521   0.058
17878W        W59889   1.629  16.634   9.922
17879W        W59890  14.219   9.974  14.722
17880W        W59891  12.969   0.854  10.422
17881W        W59892  16.299  25.211  11.052
17882W        W59893  22.009  17.534   9.352
17883W        W59894   3.869  24.221   3.232
17884W        W59895   4.439  25.181  10.042
17885W        W59896   3.419   1.464  15.542
17886W        W59897   8.099  23.401  10.832
17887W        W59898  14.169  25.481  14.962
17888W        W59899  10.409  17.154  10.992
17889W        W59900  21.419   3.474   0.418
17890W        W59901   1.819  11.034   0.288
17891W        W59902   2.619   7.494   9.602
17892W        W59903   7.819   2.984   2.892
17893W        W59904  21.789  24.691   2.572
17894W        W59905   6.899   4.124   2.358
17895W        W59906  13.199  18.824   3.502
17896W        W59907   9.289  18.944   8.572
17897W        W59908  22.429   6.374   0.558
17898W        W59909   7.799  11.924  15.182
17899W        W59910  16.799   4.454   4.382
17900W        W59911  20.429   5.714   2.622
17901W        W59912  10.879  21.044   9.282
17902W        W59913  18.829  20.224   9.072
17903W        W59914   6.959   9.964   1.178
17904W        W59915  16.259  17.844   8.522
17905W        W59916  19.549   3.904   8.302
17906W        W59917  22.309   5.804   9.192
17907W        W59918   0.819  10.124  11.632
17908W        W59919   9.269  20.904  10.342
17909W        W59920   2.979  23.751   0.208
17910W        W59921   3.519   0.064   9.902
17911W        W59922   0.519   1.764   0.328
17912W        W59923  23.909   5.164   9.242
17913W        W59924   8.709  13.824  14.212
17914W        W59925  14.829  11.194   5.112
17915W        W59926   3.149   2.484   3.302
17916W        W59927   0.539  25.181   8.172
17917W        W59928  22.399   1.614   2.772
17918W        W59929  20.699   8.074   8.982
17919W        W59930  15.409   8.134   9.252
17920W        W59931  24.759   5.264   7.862
17921W        W59932  11.359   1.474   1.828
17922W        W59933  23.509   1.914  11.542
17923W        W59934  14.999   3.104   2.752
17924W        W59935   0.919  10.164   7.832
17925W        W59936   5.799  21.691  10.032
17926W        W59937  12.099   3.954   2.702
17927W        W59938   4.489  15.534   1.018
17928W        W59939   5.789   1.614  15.832
17929W        W59940   0.339  21.014   1.428
17930W        W59941   9.049  21.541   7.832
17931W        W59942  16.589  23.801  10.492
17932W        W59943  11.479  20.864  15.832
17933W        W59944   4.659  23.771   9.132
17934W        W59945  20.879   9.674  15.062
17935W        W59946   6.179  10.584  15.832
17936W        W59947  13.259  23.311   2.188
17937W        W59948  10.509   7.494   1.178
17938W        W59949   2.769  21.044  15.792
17939W        W59950   4.599  12.764   8.092
17940W        W59951   6.629  14.764   8.262
17941W        W59952  14.799   5.364  14.602
17942W        W59953  15.359  13.334   2.552
17943W        W59954  11.629  12.904  15.322
17944W        W59955   7.309  17.984   0.938
17945W        W59956   7.449  11.864  15.602
17946W        W59957  20.519  22.171   3.882
17947W        W59958  14.269   0.834   0.558
17948W        W59959  24.009   7.594   9.812
17949W        W59960  18.279   5.144   8.802
17950W        W59961   8.519   7.894   7.782
17951W        W59962  23.709   0.794   8.962
17952W        W59963  12.739   4.444   8.512
17953W        W59964  11.969   8.254   9.302
17954W        W59965  25.049  16.224   8.742
17955W        W59966  20.779   2.934   3.682
17956W        W59967  15.809  14.574   3.202
17957W        W59968   1.479  10.794   1.588
17958W        W59969  23.129   5.054  11.812
17959W        W59970   1.299  11.624   2.158
17960W        W59971   4.999  10.084   1.758
17961W        W59972   3.319   1.144  10.272
17962W        W59973  15.829  20.514   2.862
17963W        W59974   1.449   7.884   8.822
17964W        W59975  11.949   8.224  10.552
17965W        W59976  25.349  11.334   1.558
17966W        W59977  23.099  19.374  11.612
17967W        W59978   3.019  18.534   2.068
17968W        W59979  21.599  24.581   0.448
17969W        W59980  11.589   6.804   8.302
17970W        W59981  25.029  13.514   2.248
17971W        W59982  16.409  21.981   2.632
17972W        W59983   7.879  18.484  10.692
17973W        W59984  18.409  20.944   9.262
17974W        W59985  12.829   2.304  10.482
17975W        W59986  21.319  21.104   7.932
17976W        W59987  22.089   7.164   9.912
17977W        W59988  16.539  21.441   1.468
17978W        W59989  25.099  11.124   8.512
17979W        W59990   7.849   1.154  10.522
17980W        W59991  15.589  14.284   1.888
17981W        W59992  10.249   7.494   1.598
17982W        W59993  13.499  21.661  10.802
17983W        W59994   6.889  14.644  10.552
17984W        W59995  21.439  17.984   3.702
17985W        W59996   0.919   9.794   9.722
17986W        W59997  24.409  24.291   2.542
17987W        W59998  10.859  24.611   3.622
17988W        W59999  16.959  12.284   9.572
17989W        W60000  13.369  13.294  14.492
17990W        W60001  13.009  13.854   2.572
17991W        W60002  17.969  21.094   9.222
17992W        W60003  24.389  15.654  15.662
17993W        W60004  11.529  14.794  10.192
17994W        W60005  19.089  11.714   8.402
17995W        W60006  19.769  21.354   9.272
17996W        W60007  17.259   0.414   9.032
17997W        W60008  24.669  16.014  15.402
17998W        W60009  22.069   8.014   2.468
17999W        W60010  14.839  21.421   2.562
18000W        W60011   2.619  22.621   9.482
18001W        W60012   7.929  16.224   0.898
18002W        W60013   3.719   0.694   8.412
18003W        W60014   0.909  14.154   7.782
18004W        W60015   7.239  17.734   9.692
18005W        W60016  16.509  24.411  10.972
18006W        W60017  12.179  21.114   4.352
18007W        W60018  10.459  11.504  14.622
18008W        W60019   1.709  18.194   8.232
18009W        W60020  17.049  19.404   1.268
18010W        W60021  12.489  21.821  11.112
18011W        W60022  13.209  18.694   1.958
18012W        W60023   8.339   2.974   8.912
18013W        W60024  17.049  22.481   7.442
18014W        W60025  21.079  11.594   0.878
18015W        W60026  17.039  16.454   1.828
18016W        W60027  18.919  17.184   7.152
18017W        W60028  24.589  11.314  15.082
18018W        W60029  24.269   0.944   9.872
18019W        W60030  17.979  13.644  10.812
18020W        W60031  12.389  21.501   4.132
18021W        W60032  18.849   9.584   9.812
18022W        W60033   6.879   4.514   3.082
18023W        W60034  12.479   0.464   7.762
18024W        W60035   7.359  17.394   7.462
18025W        W60036  15.799  11.664  15.222
18026W        W60037  13.609  18.354   2.762
18027W        W60038  22.059   4.424   8.022
18028W        W60039   2.139   4.754   1.778
18029W        W60040  23.599  14.244   0.708
18030W        W60041   0.859  19.854   9.012
18031W        W60042  12.049  17.934  15.132
18032W        W60043   6.109  10.054   8.452
18033W        W60044   2.219  24.941   1.158
18034W        W60045  11.139   8.044   1.688
18035W        W60046  23.199  10.824   0.078
18036W        W60047   3.809  17.864   2.428
18037W        W60048  11.909   4.224   7.942
18038W        W60049  22.219  13.164   3.522
18039W        W60050  20.299   3.684  11.722
18040W        W60051   4.369  15.184  10.672
18041W        W60052  22.369   7.964  10.322
18042W        W60053  13.099  20.674  14.852
18043W        W60054   9.889   6.804  15.102
18044W        W60055   8.579  12.334   2.028
18045W        W60056   7.179   5.954  15.012
18046W        W60057  22.349   0.214   8.942
18047W        W60058   6.899  12.084  14.762
18048W        W60059  23.039   8.344   2.118
18049W        W60060  24.339   0.394  15.562
18050W        W60061  21.319  17.964   2.522
18051W        W60062   1.049  17.194  12.212
18052W        W60063  23.309  10.254   6.582
18053W        W60064  14.919  15.904   2.902
18054W        W60065  19.089  20.194   3.642
18055W        W60066  11.299   9.504  15.432
18056W        W60067  13.039  23.711  10.752
18057W        W60068  11.919  12.454   4.522
18058W        W60069  11.789  24.191   1.348
18059W        W60070  20.039  10.544  10.232
18060W        W60071  10.119  24.491  10.342
18061W        W60072  12.389   9.214   3.942
18062W        W60073  23.279   2.984  11.592
18063W        W60074   8.589   5.084   9.792
18064W        W60075  13.439  24.021  10.802
18065W        W60076   5.209   5.354  15.432
18066W        W60077   7.329  12.414   9.342
18067W        W60078  21.549  22.351   3.472
18068W        W60079   1.119  15.014   8.552
18069W        W60080  19.069  21.941   4.552
18070W        W60081  11.529  15.424   0.688
18071W        W60082  20.619   4.334   0.718
18072W        W60083   6.349  24.981  15.672
18073W        W60084  11.059   7.024   0.818
18074W        W60085  19.559   3.044   9.372
18075W        W60086   3.119  15.084   8.752
18076W        W60087  20.399  15.534   4.032
18077W        W60088  25.029  19.984   1.438
18078W        W60089  12.239   9.504  15.202
18079W        W60090   6.459  12.154   9.042
18080W        W60091  23.549   1.954   1.178
18081W        W60092  15.289  14.694   1.168
18082W        W60093   1.609   1.984   7.662
18083W        W60094   1.709   6.274   9.872
18084W        W60095   8.659  13.644   1.448
18085W        W60096   7.189   5.714   2.038
18086W        W60097   4.399  10.154   0.958
18087W        W60098   8.009  20.604   9.652
18088W        W60099   6.699   2.344   0.458
18089W        W60100  19.999  23.631  10.722
18090W        W60101   7.909  21.471  10.742
18091W        W60102  24.449   6.134  10.352
18092W        W60103  19.629  10.814  10.652
18093W        W60104  21.609  19.354   7.382
18094W        W60105  15.679   9.414   8.982
18095W        W60106  23.989   3.454   0.278
18096W        W60107   3.329  21.561   0.828
18097W        W60108  21.279  19.694  10.832
18098W        W60109   2.419   9.854   8.972
18099W        W60110  21.109   8.114   0.588
18100W        W60111  15.899  17.154   0.828
18101W        W60112  23.009   6.124  10.172
18102W        W60113  18.419  15.204   3.342
18103W        W60114  15.059  25.171   2.088
18104W        W60115   7.149  24.531   9.752
18105W        W60116   9.729   6.794   2.068
18106W        W60117  20.999   9.124   1.468
18107W        W60118   6.889  25.021   1.858
18108W        W60119   0.579  18.074   1.738
18109W        W60120  12.479  12.024   1.678
18110W        W60121  11.649  19.934   8.352
18111W        W60122   2.599  15.434   9.732
18112W        W60123  23.879   4.464   7.432
18113W        W60124  23.689  13.624   8.322
18114W        W60125  11.769   0.974   9.862
18115W        W60126  11.729   8.644  14.662
18116W        W60127  21.829  16.794   2.632
18117W        W60128  21.419  11.134   2.522
18118W        W60129   2.589   7.804   8.142
18119W        W60130   6.589  10.324   0.188
18120W        W60131   9.489  21.821   8.002
18121W        W60132   7.459  10.384   8.172
18122W        W60133   7.429   0.544   1.398
18123W        W60134  24.059   8.034   2.652
18124W        W60135  15.139  20.514  14.842
18125W        W60136  18.539  12.174   2.028
18126W        W60137  22.819  18.394   8.082
18127W        W60138   5.969  22.251  15.782
18128W        W60139  24.979  12.734  10.382
18129W        W60140  14.019   5.734   0.618
18130W        W60141   2.429   0.734  14.972
18131W        W60142  23.249  23.671   2.662
18132W        W60143  16.489  16.104   0.728
18133W        W60144   6.609   8.674   2.318
18134W        W60145  13.689   7.974  10.212
18135W        W60146   4.439   0.234   1.558
18136W        W60147  22.359   6.334   1.808
18137W        W60148  22.659  25.251  11.042
18138W        W60149  23.229  14.064   1.958
18139W        W60150  24.069   4.944   0.178
18140W        W60151  22.509  21.381  11.122
18141W        W60152  19.399   7.384   3.952
18142W        W60153  15.079  13.644   3.942
18143W        W60154  17.469   7.994  10.282
18144W        W60155  12.979  21.961   1.168
18145W        W60156  18.869  16.594   9.182
18146W        W60157  12.029   3.904   0.528
18147W        W60158  20.159  10.024  10.262
18148W        W60159   0.109  14.554   8.832
18149W        W60160  14.239  22.951  10.062
18150W        W60161  19.349   5.304  15.612
18151W        W60162   1.289   7.004   2.522
18152W        W60163   4.549  13.524   8.472
18153W        W60164  20.279  17.744   8.652
18154W        W60165   5.159  19.474  11.382
18155W        W60166   8.519  24.211   2.642
18156W        W60167  12.439   5.294   8.532
18157W        W60168  19.969  21.354  11.942
18158W        W60169  18.959  12.744  10.602
18159W        W60170   1.469  20.094   0.028
18160W        W60171  10.379  14.234   2.922
18161W        W60172   9.779   2.644   3.822
18162W        W60173  13.319  22.691   2.098
18163W        W60174  18.669  23.361  10.492
18164W        W60175   6.919   5.994   9.382
18165W        W60176   8.999  14.064  15.242
18166W        W60177  16.469   9.144  11.142
18167W        W60178  16.299   2.714   1.778
18168W        W60179   4.129   3.244   9.162
18169W        W60180   4.329  20.984   8.152
18170W        W60181   0.079   5.594  10.542
18171W        W60182  14.659  11.764   2.752
18172W        W60183  23.699  13.244  10.342
18173W        W60184  18.949  22.361   3.242
18174W        W60185  17.189  22.451  10.182
18175W        W60186  19.789   1.594  11.052
18176W        W60187  23.639  10.864   2.318
18177W        W60188  17.499   2.494  15.622
18178W        W60189  13.149  18.034  15.482
18179W        W60190   9.559   1.224   2.792
18180W        W60191  23.219   5.764   9.672
18181W        W60192   8.099  24.281  10.402
18182W        W60193  22.599  17.394   0.228
18183W        W60194   7.769  19.144   0.108
18184W        W60195   2.839  23.941   1.908
18185W        W60196  25.239  11.664   3.272
18186W        W60197   9.079  18.604  10.752
18187W        W60198  12.429  11.994   2.298
18188W        W60199  18.639  16.144   9.442
18189W        W60200  13.879  11.044  15.132
18190W        W60201  10.479  11.104   1.538
18191W        W60202  19.469  18.864   1.348
18192W        W60203   1.899  20.464   8.522
18193W        W60204   9.979  22.611   3.382
18194W        W60205   7.179  13.794  14.542
18195W        W60206  18.859  24.971   2.662
18196W        W60207  16.699  11.854   1.718
18197W        W60208   1.249  19.084   3.232
18198W        W60209   5.489   5.234   3.172
18199W        W60210   5.429   0.914   3.262
18200W        W60211  12.469   9.764  14.542
18201W        W60212  20.559   4.384   2.582
18202W        W60213   9.399  18.774   0.308
18203W        W60214   1.819   8.964  11.312
18204W        W60215  11.399   8.974  15.472
18205W        W60216  16.189   5.294   1.878
18206W        W60217   2.029   9.604   1.808
18207W        W60218  19.589   9.104   1.828
18208W        W60219  19.889  13.534  10.932
18209W        W60220  10.349  12.984   2.118
18210W        W60221   3.969  11.204  11.662
18211W        W60222  22.449  12.164  10.872
18212W        W60223   8.649   3.734   1.688
18213W        W60224  13.399  21.264   2.752
18214W        W60225  14.849  11.374   2.632
18215W        W60226   3.389  11.774   1.328
18216W        W60227  10.159  23.371   1.808
18217W        W60228  22.329  11.414   0.138
18218W        W60229  13.449  12.134   0.428
18219W        W60230   9.979   0.674   1.098
18220W        W60231  16.959   8.684   3.402
18221W        W60232   3.309  24.261   4.362
18222W        W60233   7.169  19.434  10.002
18223W        W60234  21.569   1.594  11.652
18224W        W60235  21.609  13.724   0.588
18225W        W60236  19.589  22.271   3.572
18226W        W60237   9.159   7.054   9.912
18227W        W60238   5.799  12.504  11.642
18228W        W60239   7.649   4.084   2.762
18229W        W60240   5.009  14.474   7.712
18230W        W60241  15.519  12.564   3.522
18231W        W60242  11.469   2.714   9.912
18232W        W60243  22.169  20.454   1.268
18233W        W60244   5.839  17.664   1.598
18234W        W60245   5.239  15.494   2.438
18235W        W60246  19.169   2.424   2.458
18236W        W60247  14.069   7.634  14.582
18237W        W60248  19.649   4.874   0.438
18238W        W60249  12.149   9.424   3.382
18239W        W60250  21.299   1.214   3.602
18240W        W60251  21.839   1.044  10.492
18241W        W60252   3.449   1.284   1.018
18242W        W60253  16.499   6.354   0.208
18243W        W60254   6.689   3.274   8.852
18244W        W60255  10.259  21.264   2.048
18245W        W60256   9.149  16.514  15.292
18246W        W60257  19.829  19.494   7.862
18247W        W60258  25.319   9.004  12.272
18248W        W60259  16.499   6.264   1.288
18249W        W60260  14.949   8.264   2.632
18250W        W60261  12.259  17.324   1.378
18251W        W60262  16.859   8.184  10.092
18252W        W60263   5.439  13.504   1.548
18253W        W60264  21.159  14.474   3.572
18254W        W60265  11.559  19.504  10.072
18255W        W60266  10.449  16.834   3.622
18256W        W60267  13.619  16.124  15.512
18257W        W60268  25.379  13.074   8.382
18258W        W60269  14.049   5.324   2.378
18259W        W60270  15.839   7.154  15.132
18260W        W60271  20.179  25.301   7.932
18261W        W60272   6.049  14.274   0.608
18262W        W60273   2.189   5.364   7.392
18263W        W60274   7.509   9.034   8.892
18264W        W60275   9.389  12.564   4.732
18265W        W60276   9.659  17.664   9.902
18266W        W60277   7.359  25.181   0.368
18267W        W60278  25.039  10.994   1.868
18268W        W60279  15.229   6.764  10.412
18269W        W60280  10.909   0.004   9.852
18270W        W60281  15.369   0.194   3.532
18271W        W60282   3.499  12.084  15.612
18272W        W60283   0.011  13.154   0.578
18273W        W60284   2.719  16.324   9.042
18274W        W60285  17.479   7.324  15.002
18275W        W60286   8.479  23.421   3.822
18276W        W60287   8.779  13.334   8.762
18277W        W60288  10.339  23.951   9.242
18278W        W60289  11.939  23.881   2.348
18279W        W60290  10.099  23.171   9.722
18280W        W60291  21.609  18.354   9.622
18281W        W60292   9.829  11.254   1.108
18282W        W60293   1.899  20.344   4.042
18283W        W60294  16.639   1.854   2.328
18284W        W60295  19.619   1.934   8.272
18285W        W60296   9.479   4.834  11.042
18286W        W60297   2.119  20.114   9.332
18287W        W60298  20.419  11.734   0.158
18288W        W60299  20.009  11.094   0.438
18289W        W60300   2.459  19.844   3.132
18290W        W60301  21.889   0.764   2.398
18291W        W60302  13.779  24.111   2.308
18292W        W60303  10.679   5.334   1.398
18293W        W60304  16.849  17.964  11.032
18294W        W60305  25.139  24.851   3.082
18295W        W60306  22.139  18.994   9.062
18296W        W60307   5.729  23.901  15.782
18297W        W60308   1.489  14.964   2.358
18298W        W60309   3.599   2.744   2.198
18299W        W60310   4.159  19.164   2.562
18300W        W60311  15.199  19.584  10.312
18301W        W60312   0.079   7.514   1.138
18302W        W60313   7.179  19.774  10.392
18303W        W60314  18.009   8.774   9.162
18304W        W60315  11.619   9.914   2.562
18305W        W60316  19.079  24.401   0.908
18306W        W60317  21.729  10.634  15.432
18307W        W60318   0.819   8.354   0.538
18308W        W60319  17.119  13.334   3.502
18309W        W60320  20.289  16.904  15.642
18310W        W60321   2.129  21.094   0.438
18311W        W60322   9.579   2.184  15.022
18312W        W60323  22.779   5.854   9.472
18313W        W60324  14.239   3.054  11.382
18314W        W60325  24.549  24.451   7.342
18315W        W60326   9.909  11.764  13.902
18316W        W60327   2.359  15.614   3.092
18317W        W60328  21.509  16.324   0.388
18318W        W60329  15.929  11.804   0.688
18319W        W60330   1.349   7.994   6.972
18320W        W60331  11.179   0.724   8.202
18321W        W60332  21.919   5.464   1.328
18322W        W60333   4.169   2.064  15.522
18323W        W60334  10.939   0.784   2.542
18324W        W60335  16.939  14.334  15.622
18325W        W60336  10.149   4.524   3.022
18326W        W60337   5.709  13.534   7.482
18327W        W60338   1.069  10.664  10.902
18328W        W60339  15.059   3.584  11.332
18329W        W60340   5.559   6.454   9.032
18330W        W60341  19.959   7.514   0.878
18331W        W60342  22.639   7.054  10.322
18332W        W60343   6.859  19.164   2.398
18333W        W60344   9.149  21.441   2.148
18334W        W60345   3.429   8.594   7.742
18335W        W60346  10.569  23.611   3.902
18336W        W60347  18.769  16.784   9.682
18337W        W60348   9.579  16.514   2.992
18338W        W60349   0.069   0.904   2.248
18339W        W60350  22.999  12.624   7.802
18340W        W60351   0.011   2.104   1.448
18341W        W60352  11.649  22.051   9.782
18342W        W60353  10.469  13.064   1.488
18343W        W60354   0.809   2.894   2.028
18344W        W60355  16.459   2.974  11.142
18345W        W60356   3.429   0.314   0.758
18346W        W60357   3.499   3.014   0.038
18347W        W60358   5.209   5.814  10.722
18348W        W60359  15.739   8.804  15.072
18349W        W60360  18.319  11.584  10.502
18350W        W60361   9.429  15.044   0.968
18351W        W60362  20.359  13.044   1.618
18352W        W60363   7.429  24.101   9.552
18353W        W60364  18.879   6.374   8.252
18354W        W60365  22.319  21.074   9.582
18355W        W60366   0.879  21.104  10.902
18356W        W60367  13.879  25.171   9.972
18357W        W60368   8.319   9.994   0.108
18358W        W60369  13.359   3.674   1.288
18359W        W60370  11.189   4.854   4.402
18360W        W60371   6.799   7.314   8.912
18361W        W60372  23.399  16.384   3.212
18362W        W60373  13.119   1.724   0.978
18363W        W60374  14.329  16.204   1.678
18364W        W60375   4.689  13.654   9.592
18365W        W60376  15.519  17.524  11.272
18366W        W60377  23.129  18.464  15.702
18367W        W60378  23.229  11.034  10.362
18368W        W60379   5.329   9.864  14.712
18369W        W60380  13.309  16.894   0.288
18370W        W60381   0.749  12.664   8.052
18371W        W60382   5.339   8.204   9.232
18372W        W60383  10.499  15.134   8.692
18373W        W60384   5.529  21.144   4.042
18374W        W60385  19.999   3.364   0.168
18375W        W60386   3.669  20.344  10.312
18376W        W60387  21.539  10.544   9.262
18377W        W60388  19.099   3.554   2.278
18378W        W60389  10.999   7.694  10.712
18379W        W60390   3.439  16.034   8.532
18380W        W60391  23.569  10.224   8.352
18381W        W60392  24.959  12.434   9.442
18382W        W60393  25.169   2.984   0.798
18383W        W60394  16.309   6.774   0.128
18384W        W60395  21.139   0.834   1.518
18385W        W60396   3.209   2.114   9.042
18386W        W60397  21.669  23.831   4.062
18387W        W60398  23.829   3.064   9.962
18388W        W60399   6.779  22.311   1.478
18389W        W60400  24.729  10.654   7.232
18390W        W60401  18.339  12.624   3.142
18391W        W60402   9.959   4.204   9.742
18392W        W60403  13.549  24.681   1.188
18393W        W60404  18.699  19.594   2.822
18394W        W60405   0.359   9.514  11.092
18395W        W60406  11.619   4.644   9.312
18396W        W60407  16.579  17.774   3.872
18397W        W60408  24.959  15.264  11.732
18398W        W60409  12.249   7.744  15.242
18399W        W60410  21.079  15.054  10.082
18400W        W60411   7.889   8.724   0.018
18401W        W60412   4.909   8.014   1.348
18402W        W60413   3.859   3.304  15.602
18403W        W60414  17.109  16.914   2.982
18404W        W60415  23.939  23.011  11.992
18405W        W60416   7.259   9.534   4.122
18406W        W60417  16.989  13.474  15.202
18407W        W60418  14.119  10.744   1.948
18408W        W60419   8.039  22.691   7.852
18409W        W60420   7.519  15.204   1.908
18410W        W60421  14.259  12.344   0.838
18411W        W60422   7.799  14.274   3.532
18412W        W60423  15.559  14.644   2.812
18413W        W60424   2.069  18.424   2.972
18414W        W60425  14.339  14.344   2.398
18415W        W60426   8.469  11.614  14.342
18416W        W60427  23.949   8.474   2.288
18417W        W60428  15.239  13.844   9.902
18418W        W60429  23.639   9.214  11.212
18419W        W60430  10.209   3.564   9.782
18420W        W60431   9.809  16.674   2.612
18421W        W60432  18.209   5.504   2.398
18422W        W60433  24.679   2.374   8.382
18423W        W60434  21.809   7.674   7.632
18424W        W60435   1.009   6.444   8.372
18425W        W60436  12.989  16.244   0.108
18426W        W60437   6.679  22.761   0.008
18427W        W60438  13.959   8.794   3.372
18428W        W60439  14.239   6.284   8.902
18429W        W60440  24.059  13.594  15.422
18430W        W60441  19.949  25.431   8.572
18431W        W60442   8.469  24.701  11.002
18432W        W60443   5.519   4.374  15.492
18433W        W60444  25.049  10.304   3.392
18434W        W60445  12.079  12.774   5.432
18435W        W60446  15.469  24.661   3.462
18436W        W60447  12.449   3.454   7.732
18437W        W60448  14.149   4.264   2.158
18438W        W60449  22.699  19.774   2.882
18439W        W60450   6.369  17.444   0.468
18440W        W60451  25.589   6.404  11.342
18441W        W60452  23.359  24.441  10.442
18442W        W60453   7.409  12.114   8.052
18443W        W60454  24.329  13.014   2.712
18444W        W60455   4.379  25.261  10.522
18445W        W60456   3.389   5.684   9.492
18446W        W60457  15.459  23.691   3.012
18447W        W60458   9.819  19.944   0.238
18448W        W60459   3.339  12.754   8.612
18449W        W60460  23.049   7.744   8.072
18450W        W60461   5.149   3.544  11.352
18451W        W60462   6.069  20.614   1.168
18452W        W60463  13.089  16.424   9.452
18453W        W60464  11.969   9.634   8.732
18454W        W60465  16.129  16.274   0.448
18455W        W60466   6.799  20.694   1.488
18456W        W60467   9.949  18.674   1.468
18457W        W60468  17.049   1.424  11.172
18458W        W60469   5.569  13.084   7.742
18459W        W60470  18.059  14.254   2.512
18460W        W60471  22.839   4.804   0.098
18461W        W60472  23.639  17.594   1.898
18462W        W60473   5.449  19.854   8.222
18463W        W60474  14.719   1.644   1.718
18464W        W60475   7.109  21.354   2.408
18465W        W60476   1.379   1.934  10.912
18466W        W60477   6.619   8.974   0.788
18467W        W60478  20.249   5.824   3.152
18468W        W60479  25.069   7.434   0.298
18469W        W60480  18.529  11.554  15.782
18470W        W60481   8.009  23.521   2.268
18471W        W60482   3.849  13.324  15.532
18472W        W60483  22.839  16.544   2.418
18473W        W60484  22.239   1.674  15.572
18474W        W60485  14.489  23.021  10.792
18475W        W60486  19.359  17.754   9.292
18476W        W60487  24.999  21.591  11.532
18477W        W60488  20.789   5.654   8.752
18478W        W60489   9.329  14.094  14.852
18479W        W60490   3.269  24.111   1.088
18480W        W60491  21.939   4.004   1.858
18481W        W60492   1.939   0.584  11.542
18482W        W60493  21.909  23.941   9.162
18483W        W60494   5.649   7.284   1.708
18484W        W60495  14.099  21.801   4.222
18485W        W60496  23.669   0.134  11.652
18486W        W60497  25.169   2.644   2.228
18487W        W60498  20.849  10.204   3.372
18488W        W60499  21.919   5.754   9.932
18489W        W60500  19.759  18.064   8.632
18490W        W60501  24.529   8.514  11.412
18491W        W60502   9.689  24.311   2.842
18492W        W60503   6.009  17.494  11.892
18493W        W60504   9.829   2.244   2.822
18494W        W60505  20.609  16.034   2.922
18495W        W60506  20.839  23.541   8.612
18496W        W60507  15.049  21.631   9.702
18497W        W60508  22.949  12.044   9.612
18498W        W60509   9.679  13.184   3.892
18499W        W60510   3.029  23.431   8.602
18500W        W60511  22.259   8.434  10.212
18501W        W60512  22.579   8.054   8.132
18502W        W60513  25.379  22.831   7.552
18503W        W60514   8.549  17.214   0.618
18504W        W60515   1.329  18.134  10.352
18505W        W60516  11.529  20.974  10.342
18506W        W60517   4.349  21.144   7.692
18507W        W60518   4.189   1.204   1.368
18508W        W60519  18.599   4.454   2.582
18509W        W60520  15.329  15.494   0.808
18510W        W60521  20.899  17.914  11.852
18511W        W60522   5.709  11.774   2.752
18512W        W60523  23.529  16.624  10.542
18513W        W60524   5.459  21.254   8.732
18514W        W60525  11.089  11.504  10.482
18515W        W60526  14.559  11.734   9.782
18516W        W60527  13.319  11.174  15.692
18517W        W60528   3.239  15.424   2.218
18518W        W60529   3.389   7.244  15.202
18519W        W60530  20.389   0.594  11.742
18520W        W60531  20.409   9.024   0.258
18521W        W60532  23.239   7.404  15.602
18522W        W60533   9.739  14.924  10.292
18523W        W60534   2.939  19.154   3.892
18524W        W60535  17.989  11.824   9.072
18525W        W60536  15.579  21.004   9.392
18526W        W60537   2.019   6.494   9.362
18527W        W60538   5.389   4.354   2.792
18528W        W60539   3.029  16.734   8.912
18529W        W60540  13.219  24.211  11.352
18530W        W60541   3.009  11.714  11.842
18531W        W60542   8.429  13.794  10.212
18532W        W60543  13.349  18.164   3.152
18533W        W60544   8.219  14.064  15.242
18534W        W60545   9.979   2.284  15.422
18535W        W60546  14.279  10.254   0.208
18536W        W60547   2.079  11.874  15.802
18537W        W60548   6.109   9.244   7.262
18538W        W60549  10.769  14.544   0.478
18539W        W60550  11.349   6.144   0.428
18540W        W60551   2.489  13.164  15.612
18541W        W60552  25.409  13.494  15.022
18542W        W60553   6.269   6.224   9.772
18543W        W60554   9.149   6.914  10.422
18544W        W60555  15.329   9.454   1.788
18545W        W60556  24.409  20.914   8.902
18546W        W60557  16.389  22.781   8.462
18547W        W60558  17.979   7.724   8.472
18548W        W60559   5.219  19.934   3.392
18549W        W60560  20.769  13.624   9.782
18550W        W60561  14.209  11.274   2.118
18551W        W60562  18.599  14.964   8.832
18552W        W60563  25.229  20.834  12.052
18553W        W60564  12.559  10.714   2.592
18554W        W60565  23.559   6.454   9.312
18555W        W60566  10.039   2.574   0.508
18556W        W60567  11.229  22.651   2.398
18557W        W60568  17.999  21.791   1.738
18558W        W60569  12.559   3.974   2.812
18559W        W60570   3.159  20.244  10.242
18560W        W60571  18.879  12.004   2.872
18561W        W60572  23.919  22.511   8.392
18562W        W60573   4.139  16.794   3.012
18563W        W60574   5.859   7.564  10.642
18564W        W60575  12.939  23.851  15.532
18565W        W60576   6.349   9.374   7.702
18566W        W60577   3.509  18.664   2.148
18567W        W60578  10.139   0.054   3.592
18568W        W60579   9.879   0.344   7.502
18569W        W60580  17.729  22.081   0.618
18570W        W60581   4.049   1.724   9.912
18571W        W60582   6.649  24.501   2.972
18572W        W60583  20.529  12.054  10.092
18573W        W60584  13.489  15.624   3.712
18574W        W60585  24.699   6.004   7.942
18575W        W60586  17.729  10.144   8.412
18576W        W60587  16.159  24.061   8.842
18577W        W60588   5.349   9.884   2.098
18578W        W60589   0.779  17.004   7.712
18579W        W60590   3.149   4.374   1.088
18580W        W60591   6.109   4.714  10.572
18581W        W60592   7.909  14.324  15.822
18582W        W60593  13.919  17.604   1.798
18583W        W60594   8.909   9.814  11.172
18584W        W60595   1.689   8.114  10.062
18585W        W60596   3.309   7.064   8.112
18586W        W60597  18.729  19.354   1.138
18587W        W60598   8.849   1.904   1.578
18588W        W60599  19.899  10.534  11.472
18589W        W60600  25.579  16.364   0.918
18590W        W60601  10.839  16.114  11.052
18591W        W60602   4.499   1.924   8.402
18592W        W60603  22.779  12.184   0.008
18593W        W60604   8.049   2.394   8.282
18594W        W60605   8.079  11.014   3.852
18595W        W60606  15.399   1.694  11.322
18596W        W60607  13.089   5.974   2.118
18597W        W60608  12.869  21.731   2.138
18598W        W60609   0.579   7.254   9.632
18599W        W60610  17.389  10.654  14.472
18600W        W60611  24.879  15.174   2.078
18601W        W60612  14.749  11.844  10.252
18602W        W60613   7.409   6.054   7.942
18603W        W60614  12.319  17.544   3.762
18604W        W60615  12.369   1.364  15.282
18605W        W60616  22.849  21.144   8.112
18606W        W60617  21.669  13.124  15.322
18607W        W60618  16.769   4.334   3.102
18608W        W60619   6.789  15.114   2.982
18609W        W60620  21.009   2.894   1.388
18610W        W60621  17.999  10.604  10.762
18611W        W60622  15.899   3.924   1.528
18612W        W60623  22.809  12.374   9.972
18613W        W60624  23.429   4.254   9.252
18614W        W60625   0.349   8.014   7.292
18615W        W60626   3.659   7.694  15.392
18616W        W60627   5.349  10.164   9.342
18617W        W60628  14.459   1.374  15.812
18618W        W60629  20.099   7.774  11.622
18619W        W60630   0.779   4.224   7.582
18620W        W60631   3.449  18.994  10.582
18621W        W60632   5.469   2.354  10.052
18622W        W60633  21.529  23.451  15.722
18623W        W60634  14.559  24.551   1.518
18624W        W60635  25.329   7.394   3.122
18625W        W60636   3.409  24.111   9.032
18626W        W60637  19.799  23.531   7.162
18627W        W60638   5.799  17.024   8.932
18628W        W60639   6.579   5.624   7.632
18629W        W60640  25.189   2.544   3.702
18630W        W60641  25.299  13.414   3.722
18631W        W60642  17.599   1.624   4.182
18632W        W60643   6.839  17.834   1.378
18633W        W60644   6.059  11.274  15.442
18634W        W60645  10.509  15.904   1.768
18635W        W60646   8.179  19.414   2.148
18636W        W60647   6.879  24.911   9.862
18637W        W60648   6.709  14.384   3.492
18638W        W60649   4.309  24.091   2.922
18639W        W60650   9.399  12.094   1.138
18640W        W60651  17.819  17.974   1.548
18641W        W60652  15.799  12.844   9.002
18642W        W60653   1.399  22.421   0.178
18643W        W60654   9.149   4.074   0.008
18644W        W60655  14.089  12.854  15.662
18645W        W60656  13.749  13.104   0.248
18646W        W60657  24.129  15.064   0.668
18647W        W60658  11.199   3.264  14.732
18648W        W60659   3.329  10.794  15.122
18649W        W60660  21.359   6.794   8.692
18650W        W60661   3.519   9.294   7.542
18651W        W60662   7.399  11.594   9.352
18652W        W60663   8.389  25.011   3.542
18653W        W60664  10.439  19.324  15.812
18654W        W60665  24.339  13.554   3.022
18655W        W60666   3.439  24.741   9.722
18656W        W60667   8.059   2.474   2.338
18657W        W60668  10.499  11.604   3.552
18658W        W60669   6.769  13.894   2.542
18659W        W60670  25.029   9.564   3.712
18660W        W60671  23.219   1.604   9.662
18661W        W60672  16.559  24.461   8.122
18662W        W60673  11.429  10.634   8.472
18663W        W60674   8.039  13.654   9.922
18664W        W60675   3.769  13.404   9.182
18665W        W60676  12.799  18.384   1.768
18666W        W60677   1.199  13.234  10.852
18667W        W60678  20.259  22.381   0.898
18668W        W60679   0.799  16.274   9.272
18669W        W60680  17.109   7.334   3.332
18670W        W60681   9.399   0.514  15.372
18671W        W60682   5.479  23.341   8.522
18672W        W60683  12.579   1.714   2.932
18673W        W60684  17.039   2.484   0.038
18674W        W60685  20.239  25.021  10.432
18675W        W60686  16.269  23.261   8.382
18676W        W60687  11.429  13.114   2.632
18677W        W60688  16.269   0.824   1.418
18678W        W60689   0.899   6.154   1.788
18679W        W60690  23.859  21.651   9.222
18680W        W60691  17.839   8.624  15.412
18681W        W60692   9.749   8.194   1.728
18682W        W60693   9.589   9.454   2.552
18683W        W60694   6.259  20.804   1.588
18684W        W60695  20.569  25.441   1.008
18685W        W60696  20.429  20.024  10.452
18686W        W60697   0.829  16.604   1.368
18687W        W60698   2.569   5.154   1.768
18688W        W60699  21.049  14.824  11.152
18689W        W60700  23.629   1.024  15.712
18690W        W60701  11.529   3.634   0.878
18691W        W60702  12.459  18.294   1.368
18692W        W60703   8.449  23.371  10.232
18693W        W60704   5.649  19.334   0.178
18694W        W60705  18.589  22.411   9.582
18695W        W60706  22.229  12.864   0.608
18696W        W60707  14.759  18.014   4.772
18697W        W60708   5.089  22.961   3.202
18698W        W60709   8.899  17.144   2.762
18699W        W60710  11.969   3.314   1.588
18700W        W60711  22.409  17.234  10.442
18701W        W60712   8.389   9.094   0.508
18702W        W60713  11.039  16.684   0.198
18703W        W60714  13.529  16.394  11.342
18704W        W60715  20.599   8.544  11.642
18705W        W60716  23.149  16.134   9.872
18706W        W60717  23.529  20.674   7.552
18707W        W60718   5.379  16.324   1.038
18708W        W60719   0.879  23.181  10.492
18709W        W60720  14.379  20.544   9.852
18710W        W60721  22.539  15.294   3.272
18711W        W60722  14.599   9.474  10.002
18712W        W60723   2.449   2.824  10.802
18713W        W60724  11.179  12.924   0.708
18714W        W60725  24.549   3.994  10.632
18715W        W60726  13.199  20.804   3.442
18716W        W60727  16.739  17.524  10.442
18717W        W60728   3.879   0.104   0.778
18718W        W60729  20.259  19.224  11.902
18719W        W60730   7.819   7.214   1.138
18720W        W60731  16.699  22.321   0.298
18721W        W60732  19.189  24.331   0.228
18722W        W60733   6.219   8.304   2.512
18723W        W60734  20.989  20.814   1.838
18724W        W60735   7.679  21.381  10.102
18725W        W60736   6.189  10.004   7.612
18726W        W60737  23.199  10.064  10.882
18727W        W60738  14.699  25.511   4.012
18728W        W60739  24.329  12.104  10.362
18729W        W60740  21.559  10.204   1.198
18730W        W60741  16.419  21.421   0.468
18731W        W60742   3.189  23.271  10.372
18732W        W60743   3.169  24.331   9.902
18733W        W60744  16.749   6.994   3.112
18734W        W60745  24.919   2.354  10.252
18735W        W60746  19.399  21.421   1.348
18736W        W60747   1.299  12.924   2.822
18737W        W60748  12.399  10.544  15.042
18738W        W60749  21.829   1.634   2.752
18739W        W60750  10.019   4.224  15.692
18740W        W60751  12.529  19.824  11.092
18741W        W60752  22.579  11.094  15.592
18742W        W60753   1.959  20.734  11.072
18743W        W60754  24.889  18.624   3.372
18744W        W60755  21.209  13.044  15.032
18745W        W60756  11.539  24.011  15.522
18746W        W60757  25.409  22.301   4.022
18747W        W60758   4.679  11.924   1.838
18748W        W60759   9.619  17.234  15.582
18749W        W60760  17.149  17.714   8.672
18750W        W60761   6.419  11.194  15.872
18751W        W60762  17.229   6.804   2.388
18752W        W60763  11.909   3.754   8.722
18753W        W60764   1.819   7.604   7.512
18754W        W60765  18.949  17.944   3.532
18755W        W60766   2.769  14.614   1.258
18756W        W60767   2.539   4.764  10.422
18757W        W60768   7.369  18.514  15.372
18758W        W60769  13.959   9.144   0.608
18759W        W60770  10.839  11.424   2.972
18760W        W60771  15.269  17.764   9.442
18761W        W60772  24.239   6.294  11.282
18762W        W60773  21.689   2.824   8.052
18763W        W60774  22.719  24.171   9.612
18764W        W60775  19.589  23.141   8.582
18765W        W60776   7.099  13.094   3.782
18766W        W60777  22.559   5.304  10.732
18767W        W60778  13.579  20.344   3.292
18768W        W60779  20.539  22.781   8.532
18769W        W60780  23.519  14.804   1.778
18770W        W60781  14.309  24.821   0.558
18771W        W60782   7.539  18.864   0.388
18772W        W60783   9.209  18.724   2.148
18773W        W60784   9.519  23.041   0.048
18774W        W60785  21.339  20.444   3.122
18775W        W60786  15.329  20.414   1.958
18776W        W60787   4.359   3.944   1.348
18777W        W60788  16.339   7.104   8.022
18778W        W60789   8.919   0.144  15.562
18779W        W60790  20.759   4.484  11.942
18780W        W60791   3.459  14.694   2.238
18781W        W60792   9.189   0.904  15.652
18782W        W60793  21.709  25.031   0.748
18783W        W60794  13.339   8.164   2.038
18784W        W60795  22.179   3.294   7.472
18785W        W60796  15.879   6.514   2.118
18786W        W60797   4.679  11.054   8.192
18787W        W60798  23.459  13.524   7.812
18788W        W60799  11.109  21.451   2.862
18789W        W60800   0.339  19.124   7.562
18790W        W60801   1.719   5.854   8.592
18791W        W60802   4.289   8.054   9.012
18792W        W60803  10.079  12.664   3.032
18793W        W60804   1.669   4.304   7.592
18794W        W60805  13.819  11.664   2.178
18795W        W60806   4.409  13.014   9.472
18796W        W60807  19.209   8.494   8.462
18797W        W60808  17.459  11.474   0.608
18798W        W60809  21.379  17.344   1.748
18799W        W60810  16.629  23.711   9.612
18800W        W60811   8.609  20.994   4.582
18801W        W60812  16.579   4.204   3.972
18802W        W60813  22.539   1.774   1.118
18803W        W60814  14.189  16.934   3.652
18804W        W60815  18.529  13.314  11.942
18805W        W60816   8.479   8.964  11.392
18806W        W60817  24.949  19.834   7.292
18807W        W60818  22.689  25.001   0.918
18808W        W60819  15.449   2.934   8.252
18809W        W60820  11.079   0.184  10.732
18810W        W60821   3.419   2.554   1.788
18811W        W60822  20.199  23.701  10.162
18812W        W60823  20.979  16.284   0.188
18813W        W60824   9.069   4.614   3.722
18814W        W60825   7.469  15.294   9.972
18815W        W60826  20.199   3.084   7.452
18816W        W60827  24.079   0.814   0.878
18817W        W60828   4.149  11.054  10.562
18818W        W60829  17.869  24.161   1.958
18819W        W60830   1.619  19.684   0.828
18820W        W60831  14.259   5.764   8.782
18821W        W60832   4.969   4.294   1.258
18822W        W60833   3.059  20.524   9.342
18823W        W60834   9.939  18.114   1.458
18824W        W60835  14.349  22.861   2.178
18825W        W60836   7.169   0.104  10.262
18826W        W60837   9.169  18.004   2.178
18827W        W60838  14.539  21.651   0.708
18828W        W60839   9.109   5.134  15.022
18829W        W60840   2.649  19.294   1.128
18830W        W60841   3.569   5.954   2.622
18831W        W60842  20.969  12.474   1.118
18832W        W60843  13.469   1.704  10.492
18833W        W60844  22.829  16.024   8.062
18834W        W60845  11.919   7.074   9.732
18835W        W60846  21.329  18.774  12.282
18836W        W60847  10.729   6.204   9.262
18837W        W60848  22.599   9.724   0.608
18838W        W60849   8.539  23.831   0.298
18839W        W60850   4.789  14.454  11.902
18840W        W60851  16.109   8.884   7.762
18841W        W60852  13.319  18.404   0.068
18842W        W60853   7.889  20.264   9.322
18843W        W60854   5.449  20.094   8.762
18844W        W60855  16.389  22.531  10.472
18845W        W60856  18.829  11.704   2.398
18846W        W60857   1.629  15.834  10.502
18847W        W60858  16.889   4.934   3.242
18848W        W60859   3.439   1.594  10.962
18849W        W60860  23.059  24.341  11.272
18850W        W60861   4.209  18.654   0.638
18851W        W60862  17.669  14.394   2.128
18852W        W60863   2.109   5.534  10.462
18853W        W60864   7.659   6.924   2.852
18854W        W60865   7.679   4.024  10.032
18855W        W60866   1.439  25.241   1.888
18856W        W60867   1.339   0.944   9.482
18857W        W60868   7.959   0.424  11.252
18858W        W60869  16.719  15.844   2.498
18859W        W60870  20.549  18.174  10.522
18860W        W60871  18.939   1.954   2.532
18861W        W60872  20.649  13.324   1.338
18862W        W60873  17.719  17.634  11.282
18863W        W60874  17.999  17.804   3.412
18864W        W60875  18.119   8.704  10.162
18865W        W60876   1.219   7.494   2.378
18866W        W60877  13.889   3.254   9.752
18867W        W60878   8.809  11.144   2.792
18868W        W60879   5.039  22.571   1.438
18869W        W60880  10.019   7.514   1.078
18870W        W60881  16.719  11.724  14.802
18871W        W60882  18.949  15.834   8.482
18872W        W60883   2.109  19.434   1.008
18873W        W60884   2.449   2.314   1.898
18874W        W60885  23.399   9.394   1.078
18875W        W60886  24.149   6.724   1.708
18876W        W60887  18.359   5.664   8.012
18877W        W60888   2.489  14.614   0.688
18878W        W60889   7.099  21.471   7.692
18879W        W60890   4.139  19.324  15.762
18880W        W60891  10.249   1.484   2.068
18881W        W60892   9.939  21.651   3.202
18882W        W60893   0.839   1.094   7.772
18883W        W60894  19.029   0.164   1.378
18884W        W60895   6.319  14.284   8.782
18885W        W60896   7.019  20.564  10.502
18886W        W60897  16.419  23.941   2.832
18887W        W60898   8.899   6.484  15.242
18888W        W60899   1.629   8.524  11.472
18889W        W60900  13.319  25.291   3.112
18890W        W60901  11.389  15.374  10.522
18891W        W60902  21.569  10.244   9.672
18892W        W60903   5.109  15.454   9.962
18893W        W60904  12.889  16.464   8.962
18894W        W60905  23.049   3.004   6.842
18895W        W60906   4.249  25.141   2.058
18896W        W60907   8.479  17.434  11.302
18897W        W60908  23.239  15.584   3.492
18898W        W60909   9.779  20.534   3.642
18899W        W60910  20.469  19.864  11.852
18900W        W60911  22.109  10.524  15.022
18901W        W60912  13.429   7.074   0.698
18902W        W60913  19.079   8.684   2.038
18903W        W60914  17.669  23.521   1.918
18904W        W60915   2.109   8.894   0.288
18905W        W60916  11.069  24.881   8.662
18906W        W60917   4.819  16.964  10.082
18907W        W60918   5.809  12.464  10.692
18908W        W60919   5.049   9.294   6.992
18909W        W60920   9.899   6.544   9.772
18910W        W60921   9.639   8.394   3.212
18911W        W60922  24.239  23.011   0.738
18912W        W60923  12.329  16.304   9.192
18913W        W60924   5.279  11.544   4.092
18914W        W60925  12.749  15.274   4.332
18915W        W60926  24.559  23.011   9.402
18916W        W60927   4.519  25.411   0.128
18917W        W60928   6.169   0.054   0.948
18918W        W60929  14.399   8.534   1.448
18919W        W60930  15.089  17.344   8.042
18920W        W60931  13.819  17.914  10.272
18921W        W60932  10.389   8.204   7.972
18922W        W60933   8.999   7.044   8.612
18923W        W60934  11.939  20.554   7.942
18924W        W60935   9.529  21.194   0.168
18925W        W60936  24.519  24.991   1.078
18926W        W60937   1.799  11.584   0.618
18927W        W60938  18.949  21.401   2.248
18928W        W60939   0.031   2.264   2.158
18929W        W60940   7.669   3.044  15.082
18930W        W60941  21.449  14.474  11.132
18931W        W60942   9.189  23.041   0.458
18932W        W60943  17.279   3.214   3.282
18933W        W60944   6.049  24.971   2.572
18934W        W60945  10.279  22.941   0.378
18935W        W60946  11.389  11.454   3.102
18936W        W60947  24.709  20.264   3.092
18937W        W60948   3.379   3.074  10.452
18938W        W60949   4.869  14.874   9.472
18939W        W60950   5.659  22.021   0.688
18940W        W60951   5.909  15.944  10.952
18941W        W60952   4.219  16.474   8.962
18942W        W60953   7.879   6.724   1.308
18943W        W60954  21.359  24.041  11.922
18944W        W60955  17.409  14.234   3.182
18945W        W60956  24.299   3.834   9.112
18946W        W60957   2.109  21.911   0.428
18947W        W60958  16.779  19.104   9.002
18948W        W60959   4.799  18.414   1.178
18949W        W60960   5.499   9.104   0.118
18950W        W60961   9.349  19.074   4.142
18951W        W60962   1.659   9.484  10.172
18952W        W60963  22.089   4.974   1.138
18953W        W60964  10.149  16.734   0.598
18954W        W60965   4.029  18.404   1.728
18955W        W60966  14.189   8.284   9.832
18956W        W60967  17.259   4.524  15.112
18957W        W60968   8.539   5.064  15.762
18958W        W60969  10.909  11.784  15.832
18959W        W60970  22.539   8.754   3.432
18960W        W60971   1.869   0.334   1.488
18961W        W60972   1.159  22.591   0.588
18962W        W60973  11.619  20.014   0.018
18963W        W60974   0.999  13.104   1.538
18964W        W60975   1.989   9.424  11.222
18965W        W60976  21.059   7.514   2.672
18966W        W60977  11.679   8.554  14.152
18967W        W60978   4.109   1.004   7.452
18968W        W60979   0.849  14.444  10.572
18969W        W60980  17.989  18.664  11.562
18970W        W60981   6.699   0.324   1.888
18971W        W60982  11.619  18.744  15.712
18972W        W60983  24.719  12.114   1.518
18973W        W60984  14.979  13.144   3.232
18974W        W60985  14.949   7.654  15.202
18975W        W60986  11.979  18.074   0.008
18976W        W60987  10.229   5.144   1.728
18977W        W60988  20.409   4.644   9.202
18978W        W60989   8.919   0.034   8.472
18979W        W60990   9.979   5.484   0.138
18980W        W60991  20.369  24.061   0.308
18981W        W60992  19.939  12.554   9.322
18982W        W60993   2.029  11.324   9.962
18983W        W60994   6.079  22.671   2.408
18984W        W60995  21.329   8.154   3.232
18985W        W60996   2.629   3.924  10.292
18986W        W60997  12.419  17.224   3.342
18987W        W60998  10.319   4.024  15.302
18988W        W60999  17.919  16.774  11.252
18989W        W61000   9.369  16.084   1.298
18990W        W61001  15.369   4.214   0.108
18991W        W61002   2.099   3.094  11.752
18992W        W61003  21.379  24.311  10.042
18993W        W61004  13.509  12.244  15.272
18994W        W61005  22.239   7.394  10.512
18995W        W61006  23.819  17.054   1.728
18996W        W61007   7.919  14.674   3.792
18997W        W61008   5.209  18.164   0.398
18998W        W61009  14.559  12.824   3.412
18999W        W61010  22.929  17.084  11.032
19000W        W61011  20.289  24.411  10.492
19001W        W61012  18.839  24.341  10.282
19002W        W61013  16.009   8.454  10.022
19003W        W61014   5.009  13.984  10.012
19004W        W61015  11.299  13.204   2.148
19005W        W61016  20.259  13.734   8.072
19006W        W61017   0.289  21.431   3.832
19007W        W61018   3.489   9.674  11.642
19008W        W61019   9.199  11.674   4.202
19009W        W61020  15.659  10.574  11.012
19010W        W61021  12.179  24.311   2.298
19011W        W61022   4.659  16.124   7.762
19012W        W61023  11.069  23.331   3.112
19013W        W61024  11.579  10.344   4.032
19014W        W61025  14.109  17.034  15.552
19015W        W61026   6.769   8.054   7.902
19016W        W61027  17.949   8.874  15.872
19017W        W61028  14.459  18.724   3.122
19018W        W61029  20.209  16.954   1.348
19019W        W61030  22.059   4.614   8.652
19020W        W61031  23.029   9.104   0.828
19021W        W61032   0.159   9.404   8.732
19022W        W61033  14.559   5.134   9.582
19023W        W61034  11.559   5.484   2.058
19024W        W61035  12.149  22.491   1.508
19025W        W61036  12.849   2.614   1.298
19026W        W61037   9.999  10.284  10.042
19027W        W61038   0.219   4.454   9.812
19028W        W61039  20.239   6.504   8.492
19029W        W61040   4.229  19.784   1.918
19030W        W61041  14.879  12.494   1.058
19031W        W61042   1.639  11.404   8.992
19032W        W61043  11.139   0.084   1.758
19033W        W61044  18.149  23.941   1.208
19034W        W61045  10.589   2.074   3.082
19035W        W61046  11.309   0.324   8.962
19036W        W61047   7.919   1.194  10.012
19037W        W61048  23.039  22.581   2.138
19038W        W61049  20.699   3.314   4.022
19039W        W61050  10.389  10.084   1.428
19040W        W61051   3.779  15.634   1.238
19041W        W61052   6.699   1.414   3.242
19042W        W61053  11.419  15.794   1.508
19043W        W61054  19.509   4.764   3.452
19044W        W61055   9.419   4.634   8.512
19045W        W61056   7.099  15.954   8.112
19046W        W61057   7.519   2.354   3.322
19047W        W61058   3.709   6.154  14.822
19048W        W61059  13.499   7.344   8.322
19049W        W61060  22.039  11.314   1.878
19050W        W61061   4.949  22.761   3.652
19051W        W61062  18.189  17.464   2.178
19052W        W61063  11.529  16.684   0.318
19053W        W61064   2.019  24.001   1.268
19054W        W61065  22.319   8.384  10.692
19055W        W61066  12.999  20.614   9.972
19056W        W61067   2.089  20.754   8.152
19057W        W61068  18.269  17.304   2.772
19058W        W61069   4.479   4.694  10.422
19059W        W61070  18.769   6.944   0.868
19060W        W61071  19.669   5.964   1.048
19061W        W61072   8.869  12.824   3.562
19062W        W61073  23.279  22.581   1.528
19063W        W61074  16.579   9.674   0.348
19064W        W61075   8.609   8.284   9.902
19065W        W61076  20.889  15.914   0.698
19066W        W61077  23.229  13.444   0.748
19067W        W61078   6.839  20.304   3.322
19068W        W61079  16.319  19.604   3.872
19069W        W61080  20.339  12.694   3.312
19070W        W61081  22.279  10.804  10.442
19071W        W61082  17.129  17.524  10.782
19072W        W61083  12.029   1.114  10.292
19073W        W61084  21.019  19.234   9.262
19074W        W61085   4.399   4.484   9.122
19075W        W61086  14.649   9.524   4.312
19076W        W61087  21.279  23.371   8.312
19077W        W61088  20.059  19.054   1.538
19078W        W61089   9.169   7.914   3.662
19079W        W61090   2.249  18.384   1.498
19080W        W61091  24.799  20.554   9.932
19081W        W61092  20.639  21.381   3.532
19082W        W61093  24.319   6.794   8.272
19083W        W61094  13.609  17.284   4.062
19084W        W61095  23.819  25.021  10.942
19085W        W61096  14.269  16.244   0.118
19086W        W61097  21.159  10.814   9.572
19087W        W61098  13.659  14.624   2.118
19088W        W61099  15.669  10.214   4.592
19089W        W61100  19.809   9.594   9.962
19090W        W61101   9.009   4.424  15.002
19091W        W61102   4.409   7.414   1.828
19092W        W61103   1.609  11.584   9.502
19093W        W61104  10.199  10.514  11.132
19094W        W61105  20.329   0.394   8.712
19095W        W61106  20.309  11.484  10.662
19096W        W61107  11.159   2.234  15.392
19097W        W61108  15.419   2.834  10.942
19098W        W61109  12.229  13.804  15.362
19099W        W61110  14.509   6.644   0.118
19100W        W61111  10.109   8.204  15.482
19101W        W61112  17.319  14.424  10.272
19102W        W61113  23.399   8.064   9.122
19103W        W61114  14.689  20.954   9.962
19104W        W61115   8.909   6.404   2.078
19105W        W61116  11.389  11.834  15.812
19106W        W61117   9.179  12.294   8.962
19107W        W61118   4.099  15.444   3.152
19108W        W61119  18.089  18.754   3.082
19109W        W61120   2.449   5.324   7.772
19110W        W61121  19.029  14.804   2.008
19111W        W61122  10.189   1.664  15.342
19112W        W61123   9.089  20.504  10.912
19113W        W61124  22.959   2.524   1.348
19114W        W61125  21.579  17.914  11.922
19115W        W61126  18.929  12.374  14.622
19116W        W61127  19.689   4.884   2.622
19117W        W61128  12.769  24.021   9.562
19118W        W61129  11.359   6.764   3.412
19119W        W61130   5.999  12.784   7.622
19120W        W61131   9.449  24.761   2.872
19121W        W61132  11.389   1.964   0.468
19122W        W61133   7.609  21.354   2.498
19123W        W61134  24.939   9.194   8.862
19124W        W61135  15.379   5.264   8.592
19125W        W61136  14.859  19.034   2.822
19126W        W61137  19.479  25.221   8.562
19127W        W61138  22.339  20.764  10.952
19128W        W61139   6.889   4.874  14.622
19129W        W61140   9.459  17.774  11.512
19130W        W61141  23.789   1.494   8.362
19131W        W61142  12.129  18.534   1.098
19132W        W61143   8.499  25.501   1.278
19133W        W61144   0.729   2.444  12.142
19134W        W61145   3.369  15.224   1.778
19135W        W61146  20.539  13.994  11.112
19136W        W61147   7.349   6.214   2.228
19137W        W61148   1.149  23.801   1.098
19138W        W61149   7.609   9.634   7.832
19139W        W61150  24.329   7.934  10.912
19140W        W61151  15.119  20.854  11.982
19141W        W61152  21.169  12.464  10.112
19142W        W61153  21.119  21.491   0.548
19143W        W61154   3.059  12.144   1.138
19144W        W61155  23.989   2.264   3.242
19145W        W61156   6.109  25.371  10.842
19146W        W61157  24.409  24.961  11.222
19147W        W61158  10.809  23.851   2.368
19148W        W61159  22.599   0.894   9.572
19149W        W61160  20.059   8.714   9.002
19150W        W61161  25.289  17.974   1.588
19151W        W61162  23.209  11.794   0.008
19152W        W61163   4.679  24.811  10.982
19153W        W61164   1.939  19.294  11.352
19154W        W61165  23.829  15.534   1.028
19155W        W61166  12.779  24.461  11.152
19156W        W61167  17.259   3.894   3.312
19157W        W61168   7.749   8.154   8.822
19158W        W61169  15.639   6.474  10.652
19159W        W61170  25.149  23.341   0.168
19160W        W61171  13.109   0.294   8.442
19161W        W61172  24.979   3.604   8.622
19162W        W61173   9.749   1.664   7.322
19163W        W61174   9.949   8.824   0.108
19164W        W61175   2.019   5.514  11.532
19165W        W61176   9.729  14.184  15.722
19166W        W61177  16.019  23.971  15.742
19167W        W61178  18.569   1.344   1.138
19168W        W61179  15.959  12.564   9.482
19169W        W61180  18.009   4.214   3.082
19170W        W61181  19.179   1.524   7.602
19171W        W61182  22.069   5.234  10.002
19172W        W61183   5.069   0.924   2.642
19173W        W61184  22.389  24.131   3.342
19174W        W61185  12.929   6.674   0.938
19175W        W61186  10.459  24.711   9.722
19176W        W61187   6.759  23.811   1.738
19177W        W61188  22.099   9.854   8.622
19178W        W61189  19.909  24.991   0.008
19179W        W61190  19.339   9.104  11.632
19180W        W61191   1.519  15.734   2.782
19181W        W61192  17.699  16.534   8.372
19182W        W61193   7.019   9.704   0.718
19183W        W61194  23.239   4.124   7.932
19184W        W61195  12.419  18.204   0.338
19185W        W61196  16.819  22.371   9.152
19186W        W61197  13.639  24.811   1.628
19187W        W61198  12.949   4.824  10.192
19188W        W61199  11.279   5.294  14.712
19189W        W61200  22.839   9.874   2.388
19190W        W61201  25.449  21.114   0.478
19191W        W61202   4.329  23.511   1.488
19192W        W61203   0.269   4.034  10.172
19193W        W61204   4.919   0.864   3.152
19194W        W61205   7.669   8.634   1.348
19195W        W61206  10.459   5.144   3.762
19196W        W61207   5.119   2.714  15.822
19197W        W61208   0.001   3.764   9.152
19198W        W61209  22.489  24.441   4.332
19199W        W61210   6.679  21.094   2.542
19200W        W61211   2.409  13.834   2.418
19201W        W61212   2.809  16.934   9.302
19202W        W61213  19.529  22.581  10.692
19203W        W61214   5.449  24.591   0.528
19204W        W61215   5.149  19.584   3.062
19205W        W61216   8.079  24.581   9.482
19206W        W61217   5.139  20.854   8.982
19207W        W61218  22.949  22.991  12.822
19208W        W61219  20.089  16.064   0.188
19209W        W61220   4.569   7.684  10.022
19210W        W61221  11.179  16.584   8.662
19211W        W61222  15.289  19.764   0.298
19212W        W61223  19.609   1.694   0.858
19213W        W61224   2.569  17.684   7.762
19214W        W61225   9.449  21.561   9.022
19215W        W61226   6.559  25.431   1.848
19216W        W61227  11.389   2.244  15.002
19217W        W61228   5.849  10.874   0.438
19218W        W61229  18.109  22.631   1.888
19219W        W61230  25.089   9.154  10.322
19220W        W61231  14.899  23.991   0.738
19221W        W61232  22.369   1.744   9.132
19222W        W61233  12.079  16.524  15.172
19223W        W61234  17.309  18.414  10.932
19224W        W61235  11.769   1.914   4.152
19225W        W61236  14.499  23.831   0.558
19226W        W61237  10.289   4.824   3.402
19227W        W61238   1.709  21.441   3.012
19228W        W61239  17.159   1.214   8.662
19229W        W61240  18.249  19.944   0.348
19230W        W61241   8.129  12.524   1.518
19231W        W61242  21.329   2.514   9.922
19232W        W61243  21.649   0.324   2.662
19233W        W61244   6.329   3.354   2.348
19234W        W61245  12.929  10.384   9.692
19235W        W61246  11.429   5.884   9.192
19236W        W61247   4.829   8.984  10.132
19237W        W61248   8.779   5.574   1.188
19238W        W61249  15.869   0.244   9.822
19239W        W61250   7.609  13.054   8.392
19240W        W61251   6.999  12.524   0.688
19241W        W61252  22.429  16.684  15.802
19242W        W61253  23.969  17.984   1.058
19243W        W61254   5.109  21.264  15.532
19244W        W61255  10.629   5.454   9.772
19245W        W61256   9.379  10.344   9.152
19246W        W61257   1.089  20.334  11.982
19247W        W61258   0.349  18.544  10.072
19248W        W61259  18.699   6.704  15.392
19249W        W61260  23.029  18.094   1.058
19250W        W61261  14.529  22.531  10.912
19251W        W61262  14.539  25.081   1.308
19252W        W61263  24.649   3.334   8.962
19253W        W61264  17.389  13.264   9.172
19254W        W61265   2.509  19.814   9.272
19255W        W61266  15.309  23.801   0.298
19256W        W61267  11.319   2.894   1.548
19257W        W61268  24.049  16.864   2.622
19258W        W61269   1.899  15.824   7.602
19259W        W61270   2.179  17.744   9.032
19260W        W61271   9.639   9.544   1.128
19261W        W61272  10.399   5.724   9.412
19262W        W61273   0.759  22.731  15.712
19263W        W61274   4.519   4.844   7.802
19264W        W61275  10.389  15.864  10.062
19265W        W61276  17.739  11.024   1.458
19266W        W61277   2.529  17.534  10.892
19267W        W61278   1.179  16.544   3.802
19268W        W61279  18.959   8.314   0.908
19269W        W61280  15.779  14.784   1.888
19270W        W61281  16.789  19.954   9.402
19271W        W61282   3.449  16.754  12.262
19272W        W61283  12.909  10.504  15.872
19273W        W61284  22.719  22.541   3.492
19274W        W61285   2.439  10.494   0.088
19275W        W61286   8.329   2.214   9.212
19276W        W61287   4.949  21.004   0.088
19277W        W61288   1.139  17.404   7.792
19278W        W61289  11.069  24.561  10.792
19279W        W61290  21.959  16.314   1.268
19280W        W61291   6.399   9.974   2.852
19281W        W61292  14.269   1.484   1.848
19282W        W61293  24.619  13.184   1.738
19283W        W61294   0.031  19.454   0.118
19284W        W61295   4.899  15.434   8.062
19285W        W61296   2.589  12.374   4.232
19286W        W61297  17.009  10.254   8.992
19287W        W61298   0.889   5.514   3.002
19288W        W61299   3.589  24.771   8.272
19289W        W61300  14.429  16.954   2.278
19290W        W61301  17.709  11.294   3.342
19291W        W61302  17.589  22.221   7.172
19292W        W61303  17.969  11.384   9.522
19293W        W61304  18.939  12.294   1.288
19294W        W61305   2.889  21.274   9.972
19295W        W61306  21.699  19.214  11.342
19296W        W61307   0.829   6.224   2.288
19297W        W61308  11.769   7.604  10.742
19298W        W61309   6.539   4.474  10.672
19299W        W61310  18.279   5.314  15.632
19300W        W61311   2.929  21.441   7.512
19301W        W61312   0.329   9.114   9.732
19302W        W61313  10.819   8.884   3.202
19303W        W61314   4.859  23.811  15.672
19304W        W61315  24.539  18.854   8.202
19305W        W61316  19.349   0.234   9.842
19306W        W61317  11.379   7.884   0.198
19307W        W61318  19.089   7.934   9.182
19308W        W61319  12.779  22.611   1.748
19309W        W61320  12.719   9.784   3.912
19310W        W61321  24.299   7.324  10.192
19311W        W61322  24.349   0.224   0.148
19312W        W61323  24.069   1.684   9.242
19313W        W61324  10.869   6.104   7.952
19314W        W61325  24.699   7.994   8.502
19315W        W61326  21.059  14.484   7.682
19316W        W61327  14.309  16.704   9.452
19317W        W61328   2.639  22.371   2.612
19318W        W61329  19.049  10.454   2.468
19319W        W61330  24.409   2.834  10.252
19320W        W61331   0.011   1.804   2.502
19321W        W61332   6.819   9.644   9.702
19322W        W61333  20.799  15.344   9.772
19323W        W61334  23.549  10.424   2.018
19324W        W61335  23.519  18.724   0.628
19325W        W61336   4.729  11.734   8.922
19326W        W61337  10.529  12.004  14.872
19327W        W61338  15.219  11.174  14.932
19328W        W61339  20.999   1.444  11.682
19329W        W61340  16.269  19.434   3.232
19330W        W61341  21.499   7.194   1.028
19331W        W61342  21.689   6.694  10.442
19332W        W61343   1.029  10.184  10.352
19333W        W61344  18.699  19.114   0.398
19334W        W61345  14.829  14.704   4.322
19335W        W61346  19.429  17.154  12.342
19336W        W61347  20.879   0.644  11.322
19337W        W61348  22.149   4.604  11.342
19338W        W61349  22.099   2.614   3.852
19339W        W61350  10.309  10.964   1.078
19340W        W61351  21.399  16.134  11.042
19341W        W61352   0.209  10.954   7.922
19342W        W61353  16.729  10.984   4.222
19343W        W61354   8.119  23.971   0.048
19344W        W61355   8.889  15.324   1.778
19345W        W61356   3.779   8.264   9.812
19346W        W61357  10.699   8.574   9.982
19347W        W61358  20.159  10.994   3.052
19348W        W61359  16.739   3.654   0.398
19349W        W61360   5.289  15.824  15.102
19350W        W61361  24.049   2.634   9.992
19351W        W61362  19.889  19.204   8.242
19352W        W61363  25.379  11.364  15.862
19353W        W61364   9.189   1.964   2.782
19354W        W61365  25.169   4.174  15.022
19355W        W61366  16.919   9.284   8.712
19356W        W61367   1.859   8.964   0.868
19357W        W61368  15.609  17.244   8.092
19358W        W61369  12.209   7.724  14.612
19359W        W61370  19.199   8.884  14.682
19360W        W61371   8.479   6.774  15.232
19361W        W61372  11.299  16.444   2.138
19362W        W61373   1.139   6.044   0.388
19363W        W61374   4.559  10.924   9.152
19364W        W61375  14.119  18.734   3.612
19365W        W61376  16.289   1.414  10.522
19366W        W61377   3.299   3.344  15.482
19367W        W61378  22.139   6.434   7.792
19368W        W61379   9.359  17.004   2.942
19369W        W61380  16.029  23.761   1.498
19370W        W61381   0.739  17.424  11.892
19371W        W61382  20.439   3.964   1.518
19372W        W61383  14.979   3.964   8.492
19373W        W61384  20.269  18.814   8.232
19374W        W61385  15.699  16.764   8.352
19375W        W61386   3.809  20.224   1.948
19376W        W61387   3.089   2.904   2.258
19377W        W61388   4.019  22.401  11.202
19378W        W61389   5.069  10.974   3.482
19379W        W61390  23.589   0.474   0.888
19380W        W61391  23.899  13.354   2.902
19381W        W61392  13.089   6.044   0.538
19382W        W61393  16.129  13.594  15.162
19383W        W61394  20.309  24.011   3.152
19384W        W61395   1.339  12.164  10.602
19385W        W61396  14.619   7.714   9.312
19386W        W61397   9.949   1.114   1.998
19387W        W61398   8.949  17.374   0.938
19388W        W61399   6.079  14.024  15.132
19389W        W61400  16.139  18.944   0.988
19390W        W61401  17.099  23.911   3.422
19391W        W61402   5.089  13.434   8.522
19392W        W61403  19.039   0.934   8.062
19393W        W61404   0.729  18.544   1.508
19394W        W61405   4.479  20.474   1.118
19395W        W61406  17.539   9.454   9.732
19396W        W61407  18.779  24.241   3.202
19397W        W61408   1.119   6.344   1.378
19398W        W61409  10.739   8.074  15.302
19399W        W61410  23.289  15.814   0.298
19400W        W61411   0.599   4.864   1.068
19401W        W61412  16.669   8.784   2.058
19402W        W61413   0.469   7.774   9.462
19403W        W61414  25.409   4.614   9.512
19404W        W61415  18.139   8.824   9.682
19405W        W61416  20.889  25.181   8.912
19406W        W61417   6.239   7.934   7.842
19407W        W61418  16.369  24.291   3.612
19408W        W61419   7.059   8.854  15.312
19409W        W61420  17.029   3.924   2.862
19410W        W61421  10.609   7.134   9.442
19411W        W61422   1.669   9.324   2.288
19412W        W61423   4.039   4.924   1.738
19413W        W61424  25.009   1.004   8.672
19414W        W61425   8.579  17.684   0.798
19415W        W61426   8.029  16.794   9.132
19416W        W61427  19.589   0.204   3.232
19417W        W61428   3.649   3.454  10.632
19418W        W61429  12.719  14.534  10.692
19419W        W61430   8.669   2.454   0.218
19420W        W61431  16.329   0.614   8.922
19421W        W61432  12.759  23.511   9.582
19422W        W61433  17.639  25.151   0.668
19423W        W61434  19.719  12.954  10.232
19424W        W61435   6.609   6.074  15.682
19425W        W61436   4.109  17.444  11.892
19426W        W61437  20.759  13.714   2.258
19427W        W61438  16.049   9.284   8.682
19428W        W61439  14.689   9.324  14.362
19429W        W61440  24.079   2.194   8.452
19430W        W61441   1.759  20.184   9.772
19431W        W61442  13.809   5.394   3.792
19432W        W61443   5.729   8.114   0.488
19433W        W61444   3.439  11.284   0.608
19434W        W61445  14.239  20.164   3.502
19435W        W61446   0.739  15.834  15.622
19436W        W61447  16.909  21.861   8.762
19437W        W61448  19.709  24.541   2.098
19438W        W61449   2.799   5.914   0.098
19439W        W61450   0.279  21.981  11.672
19440W        W61451  20.679   3.994   7.722
19441W        W61452   5.859  21.871  11.362
19442W        W61453  15.089   1.974   8.072
19443W        W61454  11.929   7.724   8.852
19444W        W61455  24.489  14.964   1.648
19445W        W61456   3.939   1.664   1.058
19446W        W61457  11.319   4.454   0.308
19447W        W61458  13.689  11.644   0.398
19448W        W61459  13.549  17.084   9.092
19449W        W61460   1.269   9.024  10.882
19450W        W61461  21.519  23.451   2.542
19451W        W61462   0.659  20.214  11.262
19452W        W61463  21.399  25.351  11.642
19453W        W61464   7.719  13.954   0.878
19454W        W61465  15.989  21.481  11.662
19455W        W61466   4.759   1.354   0.358
19456W        W61467   6.809  20.554   0.608
19457W        W61468   9.769  19.474   4.272
19458W        W61469   9.389  18.064   4.942
19459W        W61470  11.519  23.551   9.882
19460W        W61471   1.579   5.074   2.562
19461W        W61472  15.979   7.054   1.938
19462W        W61473  12.129   2.924   8.342
19463W        W61474  24.999  24.131   9.242
19464W        W61475   9.949  17.464   4.482
19465W        W61476  23.129   9.854  11.392
19466W        W61477   9.539   3.334  10.532
19467W        W61478   3.669   4.954   3.452
19468W        W61479   6.889   6.824   8.772
19469W        W61480  13.169   0.634   9.412
19470W        W61481   9.979   1.754  10.382
19471W        W61482  15.039  17.684  10.172
19472W        W61483  13.559   1.834   7.892
19473W        W61484  12.399   3.124  14.982
19474W        W61485  10.989   5.254   3.552
19475W        W61486   1.409  18.774   9.682
19476W        W61487   3.949  11.994   8.592
19477W        W61488  19.419   3.944   0.948
19478W        W61489  12.209  17.524  14.852
19479W        W61490   0.249  12.334   0.218
19480W        W61491  25.369   6.374   6.532
19481W        W61492  22.989   4.924  10.912
19482W        W61493  24.569  13.804   4.022
19483W        W61494  10.949  22.191   8.832
19484W        W61495   9.089  17.264   8.642
19485W        W61496  22.539  21.901   2.592
19486W        W61497  17.939   0.224   3.392
19487W        W61498  19.659  12.654   9.712
19488W        W61499  14.799   2.114  15.832
19489W        W61500  21.559   1.554   9.842
19490W        W61501  17.709   8.374   9.262
19491W        W61502   3.099  11.924  15.242
19492W        W61503  14.369   5.804   3.082
19493W        W61504   9.219  16.464   9.692
19494W        W61505  24.939   7.134   2.962
19495W        W61506   7.159  18.394   9.142
19496W        W61507  16.989  12.164   2.962
19497W        W61508  23.629  13.104   0.918
19498W        W61509   5.189  10.564   3.242
19499W        W61510   3.939   3.494   2.682
19500W        W61511  23.359  21.391   2.972
19501W        W61512  24.169  17.954   1.558
19502W        W61513   1.969  22.331   3.432
19503W        W61514  14.639  23.941   8.742
19504W        W61515   0.969  14.324   2.632
19505W        W61516  10.529  11.174  13.792
19506W        W61517   7.899   2.554   1.538
19507W        W61518  15.199  20.114  11.342
19508W        W61519  10.639  10.514  15.032
19509W        W61520   3.029   9.394  11.332
19510W        W61521  17.259  21.284  10.872
19511W        W61522  18.169   5.634   8.942
19512W        W61523   5.589   6.164  10.112
19513W        W61524   8.219   0.514   8.072
19514W        W61525   4.019   2.064  10.292
19515W        W61526  12.949   6.554   2.478
19516W        W61527   6.809  10.554  10.122
19517W        W61528  11.529  20.764   2.258
19518W        W61529  25.529  12.044   8.312
19519W        W61530  24.799  15.634  10.642
19520W        W61531   5.099   2.174   3.202
19521W        W61532  18.439  20.984  10.662
19522W        W61533   6.459  11.624  10.802
19523W        W61534  12.529  10.954   9.022
19524W        W61535  18.749   2.604   2.268
19525W        W61536   2.899   8.814   9.532
19526W        W61537  12.529   9.714  10.012
19527W        W61538  17.049  10.784   0.388
19528W        W61539  16.019   3.094   2.782
19529W        W61540   8.389  24.201  11.712
19530W        W61541   0.349  11.504   9.872
19531W        W61542  14.159  11.894   4.582
19532W        W61543  19.489   3.444   3.192
19533W        W61544  18.109   5.944   9.352
19534W        W61545  22.109  12.044   2.682
19535W        W61546  25.469  21.234   9.442
19536W        W61547   9.799  18.304   4.662
19537W        W61548   7.739  18.134  15.282
19538W        W61549  20.649  25.231   9.362
19539W        W61550  19.159   2.114  15.452
19540W        W61551  21.759  12.454   8.982
19541W        W61552   7.539   7.934  15.422
19542W        W61553  19.149   6.634  11.052
19543W        W61554   2.389  12.364   2.168
19544W        W61555  24.769   3.384   9.902
19545W        W61556  24.489  12.044   3.312
19546W        W61557  12.789  11.494   0.508
19547W        W61558  10.189  16.504  14.762
19548W        W61559  17.999  16.694   1.498
19549W        W61560   9.199   2.414   8.122
19550W        W61561  13.569   3.404   2.732
19551W        W61562   2.739   7.264   1.518
19552W        W61563  11.739  19.554  14.702
19553W        W61564   2.289   2.424   0.968
19554W        W61565  25.469   5.024   0.288
19555W        W61566  23.139  21.124   9.642
19556W        W61567  21.489  21.521   8.122
19557W        W61568  19.059  13.444   1.548
19558W        W61569  16.819  15.004   1.938
19559W        W61570  19.009  13.504   8.742
19560W        W61571  10.479  12.414   4.582
19561W        W61572  18.189   0.684   4.362
19562W        W61573  19.199  13.914   9.262
19563W        W61574   2.569   0.584   8.712
19564W        W61575   0.219   4.734   0.788
19565W        W61576  17.789  18.324  10.762
19566W        W61577  12.089   7.384  15.482
19567W        W61578  21.379  17.794   1.078
19568W        W61579  24.439   2.844   3.032
19569W        W61580   5.099  12.044   1.508
19570W        W61581  13.499  24.971   2.118
19571W        W61582  13.489  16.564  10.012
19572W        W61583  10.069  18.044   0.528
19573W        W61584  12.509  18.904   9.862
19574W        W61585  13.939  20.744   8.682
19575W        W61586  24.059   7.424   8.722
19576W        W61587  16.849   9.534   3.332
19577W        W61588  23.199   0.084   9.742
19578W        W61589  25.269   9.124  15.362
19579W        W61590  11.759  17.014   3.882
19580W        W61591   7.699   7.354  10.112
19581W        W61592  20.139  21.511   1.798
19582W        W61593   6.309   5.474   8.272
19583W        W61594  24.019   3.614  15.692
19584W        W61595   3.869   9.774   1.728
19585W        W61596  17.099  18.874   2.872
19586W        W61597  24.209  16.864   2.108
19587W        W61598   0.149   8.394   2.692
19588W        W61599  13.649  20.324   8.672
19589W        W61600  11.949  10.664   3.352
19590W        W61601  13.679  20.244   2.822
19591W        W61602   1.009  14.754   9.122
19592W        W61603  20.609   7.364   0.028
19593W        W61604  11.499  11.944   9.392
19594W        W61605   5.439   5.774   0.758
19595W        W61606   4.909   1.194   2.208
19596W        W61607   4.209   5.454   2.982
19597W        W61608   7.459  17.414   0.618
19598W        W61609  18.339   1.184   7.362
19599W        W61610   9.249  20.064  11.052
19600W        W61611  17.559  16.634   4.042
19601W        W61612  12.359  17.974   2.872
19602W        W61613  19.199   1.624   0.398
19603W        W61614   5.209  20.984   3.742
19604W        W61615   1.549  24.061  11.762
19605W        W61616   9.839  23.581   0.958
19606W        W61617   7.319   3.464  15.172
19607W        W61618  11.439  13.484   0.608
19608W        W61619   4.539   8.814  11.802
19609W        W61620   0.509   9.094   3.052
19610W        W61621   7.169   9.984   9.562
19611W        W61622  25.349  10.714   9.712
19612W        W61623   3.089  14.154   7.552
19613W        W61624  18.849  18.854   1.318
19614W        W61625  23.559   2.684   9.842
19615W        W61626   5.929  22.381   9.982
19616W        W61627   6.029  10.974   2.088
19617W        W61628  23.359   4.274   2.522
19618W        W61629  11.579  10.854  14.762
19619W        W61630  22.589   3.424  15.532
19620W        W61631   2.609  16.384   9.552
19621W        W61632  16.239  17.724   1.398
19622W        W61633   3.739  20.354   2.498
19623W        W61634  18.259   7.584  15.562
19624W        W61635  11.909   5.204   2.398
19625W        W61636  13.489  10.744   4.462
19626W        W61637  10.559  11.934   9.472
19627W        W61638   3.739   4.194   4.082
19628W        W61639   9.509  21.701   0.188
19629W        W61640   8.239  13.784   9.302
19630W        W61641   5.169   3.764  15.772
19631W        W61642  15.549   4.724  10.332
19632W        W61643  20.199  23.671   9.392
19633W        W61644  25.519  23.011  10.242
19634W        W61645   9.639  11.974   2.602
19635W        W61646   4.849   0.484  11.492
19636W        W61647  10.079   8.044  11.232
19637W        W61648   7.799   7.894   3.392
19638W        W61649  17.129   2.414  10.632
19639W        W61650  10.879  21.531   9.512
19640W        W61651  13.679  12.224  13.632
19641W        W61652   3.079   9.734  10.462
19642W        W61653  11.689  17.394   9.522
19643W        W61654   3.139  19.314   3.392
19644W        W61655  18.709  16.104  10.472
19645W        W61656   7.309  12.334   0.378
19646W        W61657  21.429  14.814   0.668
19647W        W61658  12.499   3.094   9.632
19648W        W61659   1.749  21.681  10.652
19649W        W61660   6.129  14.984  15.842
19650W        W61661   8.029   7.904  15.082
19651W        W61662  24.979  19.914   8.212
19652W        W61663  22.379   3.614   7.872
19653W        W61664   4.219  14.274   3.042
19654W        W61665   7.779   2.204   1.908
19655W        W61666  11.119  17.044   3.202
19656W        W61667  25.159   1.234   9.672
19657W        W61668  20.569  18.424   7.962
19658W        W61669  22.609   5.854   3.162
19659W        W61670  23.229  20.834  11.082
19660W        W61671  25.499   8.774   7.622
19661W        W61672   2.129   1.444   0.798
19662W        W61673   0.409  14.674  15.602
19663W        W61674  21.069   9.744   1.868
19664W        W61675  18.779   8.144  10.152
19665W        W61676   0.279  14.594   1.258
19666W        W61677  21.019   6.964   2.038
19667W        W61678   6.749  16.864   9.962
19668W        W61679   8.839   0.694   3.322
19669W        W61680   5.609   1.574   0.498
19670W        W61681  18.619  18.654   3.232
19671W        W61682   4.459   4.894   0.228
19672W        W61683   5.379  16.004   1.388
19673W        W61684   4.119  20.084   2.288
19674W        W61685  25.339   8.524   8.532
19675W        W61686  16.029   3.014  15.612
19676W        W61687  10.709  11.394   2.078
19677W        W61688   7.149   6.204   7.562
19678W        W61689  22.779   3.524   2.288
19679W        W61690  20.449   0.624   9.402
19680W        W61691  21.289  14.524   1.928
19681W        W61692  15.069  21.054  11.382
19682W        W61693   9.529   8.634  14.612
19683W        W61694   5.389   3.004   4.032
19684W        W61695  21.389   5.194   8.192
19685W        W61696   0.429  23.421   8.852
19686W        W61697  10.819  13.214   1.888
19687W        W61698  13.389  19.884   2.612
19688W        W61699  19.629  13.894  10.552
19689W        W61700  17.949   5.954   9.872
19690W        W61701  22.179  20.824   0.028
19691W        W61702  25.009  19.314   2.722
19692W        W61703  16.669  13.854  10.362
19693W        W61704   3.609  12.984   0.408
19694W        W61705  25.229  18.704   0.588
19695W        W61706  12.909  17.304   3.592
19696W        W61707  10.189  23.431   0.658
19697W        W61708  14.609  23.531  10.422
19698W        W61709   3.999   7.674   1.728
19699W        W61710   4.399  15.734   9.372
19700W        W61711   0.619   7.504   9.112
19701W        W61712   1.939  10.834   2.512
19702W        W61713   4.529  23.421   8.042
19703W        W61714   3.929  10.404  10.232
19704W        W61715   7.479   8.844   2.368
19705W        W61716   7.979  18.734   9.812
19706W        W61717  20.879   1.214   1.938
19707W        W61718  23.329   0.414   2.902
19708W        W61719  15.669  10.334   0.748
19709W        W61720  19.129  12.004   9.592
19710W        W61721  11.499  15.424   9.392
19711W        W61722  11.339  14.624  14.972
19712W        W61723  16.859  15.194   0.458
19713W        W61724  21.219  14.194   4.042
19714W        W61725   3.219  19.534  11.432
19715W        W61726   2.369  19.394   1.958
19716W        W61727   3.939  18.904  10.632
19717W        W61728   4.879  17.694   3.882
19718W        W61729   0.011  23.801   9.052
19719W        W61730  18.119  15.394   3.732
19720W        W61731  10.029  22.301   9.112
19721W        W61732  10.639  19.204   2.822
19722W        W61733   4.659  10.934   9.982
19723W        W61734   9.239   9.794   0.708
19724W        W61735  15.879  18.914   8.892
19725W        W61736  10.559   6.684   4.202
19726W        W61737  12.389   6.134   9.062
19727W        W61738   2.869  24.621   1.518
19728W        W61739   8.519  12.474   7.492
19729W        W61740   5.149   6.864  15.562
19730W        W61741  10.229   8.444   8.772
19731W        W61742  13.039   3.994   8.272
19732W        W61743  23.299  20.864   8.262
19733W        W61744  16.099   0.684   3.392
19734W        W61745  20.649  15.244   0.868
19735W        W61746  12.869  11.504  15.852
19736W        W61747   2.299   9.904   9.582
19737W        W61748  24.199  16.904   8.792
19738W        W61749  14.349  20.534   1.748
19739W        W61750  22.819  18.694  10.272
19740W        W61751  10.339   4.864   4.242
19741W        W61752  15.179   4.364   2.552
19742W        W61753  16.139   2.274  10.872
19743W        W61754  13.869  16.674   9.162
19744W        W61755  12.779  11.644   1.018
19745W        W61756   7.849   7.704  14.552
19746W        W61757  13.899   7.934   0.288
19747W        W61758  22.609   9.984   8.822
19748W        W61759  20.959   6.634  11.752
19749W        W61760  16.209   6.994  10.162
19750W        W61761  15.259  24.481  10.532
19751W        W61762  25.239  16.804  11.222
19752W        W61763   2.549  14.214   2.018
19753W        W61764   6.049  18.344   8.112
19754W        W61765   9.979   7.174   8.752
19755W        W61766  13.649  19.984   2.148
19756W        W61767   3.649   3.754  11.112
19757W        W61768  15.479  21.054   8.192
19758W        W61769  16.939  10.874   9.422
19759W        W61770  15.259   1.924   8.932
19760W        W61771   1.919   5.194   2.952
19761W        W61772  14.199  19.434  15.502
19762W        W61773   5.419  21.811  11.642
19763W        W61774  21.479   7.224   6.932
19764W        W61775   8.109   7.594  11.152
19765W        W61776  17.749  15.984   0.568
19766W        W61777  24.759  19.704   2.982
19767W        W61778  19.609   5.864   0.548
19768W        W61779  21.059  13.964  10.752
19769W        W61780   8.819   9.654   0.228
19770W        W61781   2.079   3.844   2.158
19771W        W61782   7.259  22.181   8.372
19772W        W61783   8.839  21.881   9.752
19773W        W61784  15.769   0.564   2.368
19774W        W61785  17.449  24.831  10.122
19775W        W61786   4.749  14.274   3.962
19776W        W61787  12.249   7.434   9.602
19777W        W61788  17.419  11.354   2.438
19778W        W61789  21.919   3.164   2.148
19779W        W61790   8.409  11.024   1.488
19780W        W61791   5.729   6.014   3.202
19781W        W61792   1.289  24.661   9.992
19782W        W61793  11.459  15.954   0.968
19783W        W61794   9.959  20.094   2.532
19784W        W61795  20.049  12.004  10.162
19785W        W61796  10.399  22.171   4.992
19786W        W61797   8.669   4.764   1.908
19787W        W61798  11.479   4.684   2.138
19788W        W61799  18.059   1.804   2.792
19789W        W61800   6.619  16.314   1.718
19790W        W61801   0.649  13.464  15.262
19791W        W61802  18.319   5.844  10.392
19792W        W61803  19.249  15.924   1.528
19793W        W61804  19.159   0.074   2.902
19794W        W61805   4.869   3.394   2.488
19795W        W61806  11.379  24.731  10.162
19796W        W61807  17.539  12.514   9.732
19797W        W61808   7.209  12.444   7.352
19798W        W61809  25.379   6.164   0.098
19799W        W61810  22.429  22.931  11.442
19800W        W61811   5.459  17.104   9.272
19801W        W61812  18.709  21.661   2.612
19802W        W61813  16.629  22.801   3.842
19803W        W61814  14.729   2.364   1.308
19804W        W61815  18.989  11.904   3.382
19805W        W61816   9.769  25.521  10.582
19806W        W61817   9.759   9.844   1.548
19807W        W61818  22.519  16.004   9.822
19808W        W61819  11.579  18.634  10.302
19809W        W61820  14.649   3.494   2.722
19810W        W61821  23.669  12.764   2.058
19811W        W61822   0.519   7.644   6.922
19812W        W61823  10.429  20.154   2.762
19813W        W61824  20.659  13.524  10.642
19814W        W61825   2.099  11.644  11.252
19815W        W61826  24.079   4.114   1.518
19816W        W61827  20.149  13.884   9.792
19817W        W61828   9.699   9.284   0.048
19818W        W61829   2.389  22.431   7.172
19819W        W61830   4.099  20.254  11.222
19820W        W61831  18.219  18.934   2.048
19821W        W61832  23.179  18.344   8.692
19822W        W61833   6.319   0.064   3.232
19823W        W61834  13.689  22.351   0.628
19824W        W61835  19.369  24.801   0.638
19825W        W61836  21.499   0.814   7.392
19826W        W61837   3.349   5.164  10.012
19827W        W61838  19.019  10.904  15.482
19828W        W61839  21.539  23.831   0.798
19829W        W61840  12.189   6.244   0.738
19830W        W61841  11.569   2.404   3.332
19831W        W61842  13.609  24.891   3.372
19832W        W61843  12.829  19.974   1.738
19833W        W61844  11.529  24.461   1.028
19834W        W61845   5.659   9.414   7.042
19835W        W61846  14.769  14.494   3.332
19836W        W61847   7.189   4.994   3.592
19837W        W61848  20.169   6.974   7.802
19838W        W61849   6.049  21.421  11.432
19839W        W61850  19.479  11.704   9.132
19840W        W61851  13.419   8.784   1.218
19841W        W61852  21.129   2.154   9.202
19842W        W61853   4.049  20.474   1.608
19843W        W61854   1.699  18.964   1.548
19844W        W61855  11.019   1.614   1.518
19845W        W61856  24.229  12.944  12.022
19846W        W61857   6.279   8.534   8.622
19847W        W61858  24.019  15.504   0.418
19848W        W61859  21.719  10.124  15.352
19849W        W61860   2.689   4.194   1.378
19850W        W61861   1.719   5.944   6.832
19851W        W61862   9.389   7.894  15.682
19852W        W61863  11.659  21.611   9.552
19853W        W61864  11.929  18.914   0.658
19854W        W61865   9.619  21.461   3.522
19855W        W61866   3.649  11.544   8.702
19856W        W61867   9.999  13.734   0.668
19857W        W61868  12.929   6.694  10.902
19858W        W61869  22.289   9.934  10.152
19859W        W61870  10.329  14.674  15.622
19860W        W61871   3.119  14.994   1.418
19861W        W61872  19.319  13.104   1.698
19862W        W61873  20.409   0.074  15.572
19863W        W61874  16.409   3.924   2.148
19864W        W61875   2.629  19.164   3.382
19865W        W61876  15.779   8.534   4.792
19866W        W61877   8.169  12.994  15.362
19867W        W61878   0.869  23.691   8.802
19868W        W61879  20.719   5.524  10.762
19869W        W61880   6.159  13.254   9.682
19870W        W61881   3.499   0.684  10.462
19871W        W61882   1.949  16.134  11.512
19872W        W61883  15.789  22.271   9.502
19873W        W61884  20.659   0.044   1.988
19874W        W61885  21.259   5.834   3.912
19875W        W61886   3.879   1.234  15.562
19876W        W61887  12.509  10.574  14.492
19877W        W61888  18.749   1.854   9.952
19878W        W61889  19.929  23.571   2.318
19879W        W61890   3.109   8.014  10.142
19880W        W61891  17.729   8.484   3.572
19881W        W61892  16.789  18.934  10.782
19882W        W61893  16.229   5.034   9.542
19883W        W61894   3.919  22.971  10.772
19884W        W61895  11.929  15.084   9.662
19885W        W61896   8.039   1.454   0.148
19886W        W61897  23.269  14.124   9.092
19887W        W61898  17.049   3.664   0.798
19888W        W61899  22.539  13.584  10.362
19889W        W61900  12.289  20.214  15.102
19890W        W61901  12.319   6.484   0.348
19891W        W61902  19.249   7.204   0.428
19892W        W61903   8.029  15.334  15.822
19893W        W61904   6.489  18.164   9.472
19894W        W61905   4.499  24.921  15.792
19895W        W61906  10.979   6.744   1.738
19896W        W61907  11.449   8.174   2.642
19897W        W61908   0.569  22.571  10.522
19898W        W61909   4.149  12.644   1.518
19899W        W61910  19.369  24.651  12.442
19900W        W61911  22.269   2.574   1.528
19901W        W61912  11.029  12.354   4.772
19902W        W61913  18.799   9.544   1.748
19903W        W61914  16.939  10.614   2.198
19904W        W61915  19.059  19.284  11.412
19905W        W61916  17.689  16.714   9.712
19906W        W61917  18.659  16.654   1.248
19907W        W61918   3.799  18.764   2.572
19908W        W61919   8.249  21.591  15.712
19909W        W61920  19.849  12.654   2.802
19910W        W61921  22.949  17.214   3.632
19911W        W61922   8.979   1.484   3.472
19912W        W61923  22.209  18.054   9.022
19913W        W61924  18.979  12.444   0.238
19914W        W61925  14.189   8.764   4.742
19915W        W61926  24.889   4.534   0.478
19916W        W61927  10.809   3.654   2.058
19917W        W61928  21.489   9.104  10.732
19918W        W61929  17.979   8.934  11.022
19919W        W61930  20.769  14.634  11.552
19920W        W61931   1.189  14.144  10.332
19921W        W61932  15.969  18.044  10.612
19922W        W61933   5.689   0.684   9.282
19923W        W61934  12.379   6.464   8.672
19924W        W61935  24.909   9.124   6.752
19925W        W61936   1.099  11.764   3.712
19926W        W61937   6.959  21.931   3.092
19927W        W61938  16.219   8.694   9.232
19928W        W61939   5.569   3.914  15.482
19929W        W61940  14.059   5.014   8.052
19930W        W61941  20.369  17.274   0.588
19931W        W61942  18.279   9.894   3.062
19932W        W61943  20.109   8.644  15.162
19933W        W61944  11.669  12.794   4.802
19934W        W61945   5.469  23.131  15.402
19935W        W61946  12.369  15.394   9.932
19936W        W61947  10.339  19.094   1.098
19937W        W61948  15.529  13.154   2.078
19938W        W61949   5.609  15.044   1.798
19939W        W61950   6.269   0.144   2.118
19940W        W61951   6.619   0.324  15.482
19941W        W61952   7.749  17.164  10.582
19942W        W61953  12.979   3.084   8.382
19943W        W61954  24.399  17.894   3.362
19944W        W61955  21.949  16.574   0.738
19945W        W61956  22.349   1.194   8.962
19946W        W61957  13.629   9.924   3.342
19947W        W61958  10.249  19.534   2.592
19948W        W61959  18.239  11.534   0.378
19949W        W61960   7.959  23.181   1.848
19950W        W61961   5.579  23.951  14.842
19951W        W61962  23.249  14.624   9.122
19952W        W61963  10.489   7.574   2.068
19953W        W61964  19.589   2.094   0.348
19954W        W61965   1.479   6.364   9.422
19955W        W61966  19.959  14.454   0.908
19956W        W61967   4.759  24.311   2.732
19957W        W61968   3.289  24.641   1.268
19958W        W61969   0.489   8.294   9.282
19959W        W61970  24.619  23.461   2.188
19960W        W61971  14.449  13.934   4.392
19961W        W61972  16.689   0.774   4.172
19962W        W61973  21.459  17.164   2.592
19963W        W61974   7.649   3.774   2.198
19964W        W61975  11.279  21.421  10.422
19965W        W61976  12.699  21.254   2.308
19966W        W61977  18.459  15.164   8.342
19967W        W61978  23.529   0.574   1.818
19968W        W61979   9.069  13.194   3.942
19969W        W61980   0.319  13.554   8.342
19970W        W61981   9.919  20.234   9.462
19971W        W61982  13.039   4.424   8.932
19972W        W61983   1.599  16.634   2.498
19973W        W61984  16.709   9.174  14.882
19974W        W61985   9.429  10.154   8.352
19975W        W61986   3.089   7.324   7.112
19976W        W61987  15.279  11.024   3.072
19977W        W61988  23.489  14.744   3.982
19978W        W61989   6.149  15.604   3.952
19979W        W61990  16.029   8.534  15.322
19980W        W61991  22.359  15.894   8.062
19981W        W61992  25.479  19.824  11.742
19982W        W61993  25.519   7.084  11.232
19983W        W61994  22.449   9.504  15.062
19984W        W61995  11.399   5.364   9.472
19985W        W61996  24.429   7.254   1.128
19986W        W61997   8.659   6.174   8.902
19987W        W61998   3.749   6.474   2.438
19988W        W61999  11.749  11.674  15.462
19989W        W62000   6.529  25.571  15.812
19990W        W62001  11.119  16.724   4.342
19991W        W62002  10.149  16.644  15.732
19992W        W62003   1.229   3.254  11.862
19993W        W62004   7.539  22.771   8.832
19994W        W62005  21.389  12.994  10.952
19995W        W62006   5.809  13.694   0.288
19996W        W62007  11.069   8.364   3.822
19997W        W62008  11.549  12.254   5.482
19998W        W62009   7.609   5.744  15.412
19999W        W62010   0.119  25.151  10.402
20000W        W62011   1.929   4.734  10.922
20001W        W62012   6.299  13.444  10.632
20002W        W62013   2.489   0.944   0.698
20003W        W62014   7.809  16.784   2.642
20004W        W62015   3.849  22.391   1.648
20005W        W62016   1.639   7.404   1.968
20006W        W62017   6.029  13.674   9.022
20007W        W62018   7.969  17.524   1.768
20008W        W62019  17.709  12.444   3.462
20009W        W62020  23.709  21.054   3.912
20010W        W62021  11.349   7.344  10.782
20011W        W62022   6.319  11.214   2.842
20012W        W62023   0.609   3.314   8.732
20013W        W62024  25.509  22.111   2.712
20014W        W62025   0.011  13.154   3.462
20015W        W62026  22.629   2.184   1.488
20016W        W62027   5.879  14.534   8.642
20017W        W62028  10.639   3.164   2.098
20018W        W62029  13.989  19.534  10.842
20019W        W62030  22.489  16.714   1.998
20020W        W62031  15.269  23.781   3.932
20021W        W62032  14.109  10.254   1.678
20022W        W62033  22.269  21.881   0.978
20023W        W62034  24.209  20.444   9.112
20024W        W62035   2.529  23.851  15.872
20025W        W62036   1.599   7.144   9.912
20026W        W62037   0.819  17.904   0.018
20027W        W62038  15.089  24.421   3.172
20028W        W62039  23.209   9.564   0.558
20029W        W62040  13.389   7.134   9.742
20030W        W62041   9.619  24.571   3.572
20031W        W62042   1.549   0.144   1.818
20032W        W62043   0.199   4.164   9.382
20033W        W62044   6.129  20.524   0.068
20034W        W62045   3.399  22.401  10.542
20035W        W62046  12.129  18.584   3.632
20036W        W62047  22.409   1.894   2.348
20037W        W62048  10.609  23.211  14.932
20038W        W62049  25.489  16.984   9.352
20039W        W62050   1.129   1.024  11.952
20040W        W62051   2.539  23.291   1.318
20041W        W62052  16.279  20.314  10.972
20042W        W62053  19.179  10.484  14.482
20043W        W62054  14.049  23.151   1.918
20044W        W62055   4.759  15.864   2.018
20045W        W62056   7.829  19.484   3.872
20046W        W62057  12.279  15.654   0.558
20047W        W62058  14.839  23.971   9.892
20048W        W62059   3.119   9.214   0.118
20049W        W62060   3.549   6.784   8.762
20050W        W62061  14.409   1.704   3.452
20051W        W62062   2.259   0.114   9.972
20052W        W62063  15.539  21.691  15.352
20053W        W62064   6.099   8.694   9.562
20054W        W62065   2.509  13.174   9.582
20055W        W62066   3.479  19.094   0.458
20056W        W62067  17.509  19.614   0.948
20057W        W62068  13.219  23.321   9.872
20058W        W62069  25.099  19.964   2.762
20059W        W62070  21.689  13.394  12.292
20060W        W62071  20.539  15.594   8.692
20061W        W62072  13.169  10.374   0.478
20062W        W62073  18.789  19.014   9.502
20063W        W62074   8.839   4.264   3.112
20064W        W62075   1.859  15.134   9.982
20065W        W62076   2.989   6.264   7.072
20066W        W62077  11.779  17.414   4.422
20067W        W62078  22.219  23.241   8.482
20068W        W62079   1.059  22.711   3.132
20069W        W62080  19.409   0.754   2.168
20070W        W62081  24.039  18.654   8.462
20071W        W62082  22.399   6.934  10.792
20072W        W62083  14.909   3.694   0.988
20073W        W62084  21.269   1.194   2.278
20074W        W62085  10.419  10.394   2.642
20075W        W62086  22.359  15.194  11.402
20076W        W62087  15.279  18.414  11.772
20077W        W62088  14.379  10.234   8.772
20078W        W62089  20.139  20.964  10.872
20079W        W62090   6.689   4.464   2.622
20080W        W62091  11.679   6.644  14.712
20081W        W62092  24.679  16.474   2.248
20082W        W62093  10.339   7.404   8.482
20083W        W62094  20.349  12.654   0.638
20084W        W62095  11.999  17.334   2.992
20085W        W62096  24.919  21.521   1.708
20086W        W62097   0.369  14.154  11.302
20087W        W62098   0.209   5.414  10.072
20088W        W62099  22.929   0.484   9.642
20089W        W62100   6.559   7.844  10.032
20090W        W62101  24.519  12.444  15.732
20091W        W62102  17.159  16.064   9.972
20092W        W62103   6.789  21.721   9.162
20093W        W62104   8.599   4.424   8.612
20094W        W62105  14.669  23.771  11.382
20095W        W62106  22.309   6.374   1.188
20096W        W62107  15.799   3.664   8.062
20097W        W62108   7.319   3.654   0.438
20098W        W62109  19.659  17.474   0.018
20099W        W62110  15.609  13.204   9.342
20100W        W62111  15.689  10.724   3.232
20101W        W62112  13.749   6.154   1.918
20102W        W62113  14.399  23.441  11.122
20103W        W62114  19.429  19.784   1.858
20104W        W62115   7.539  22.061   3.162
20105W        W62116  23.909  17.294   2.198
20106W        W62117   4.929   5.744  15.412
20107W        W62118  22.569   8.914  15.682
20108W        W62119  18.199  11.194  15.782
20109W        W62120  25.129  16.404   8.262
20110W        W62121  23.889  12.594   2.478
20111W        W62122  16.399  22.131   3.192
20112W        W62123  10.859   1.854  15.322
20113W        W62124  21.559  23.511   9.142
20114W        W62125   8.669  17.374   8.912
20115W        W62126   4.209  22.631   8.272
20116W        W62127  11.599  22.991   7.732
20117W        W62128  11.099  14.554  10.422
20118W        W62129  17.199  13.294  10.412
20119W        W62130  16.739  20.184   8.882
20120W        W62131  24.149   7.474   6.672
20121W        W62132  10.429  16.494   1.038
20122W        W62133   9.749  24.211  15.512
20123W        W62134  21.419  20.844   8.472
20124W        W62135  22.959   4.644  15.432
20125W        W62136  14.099  16.044  15.422
20126W        W62137  13.589  25.151  15.752
20127W        W62138   7.689  17.014   3.582
20128W        W62139   3.309  18.814   2.612
20129W        W62140  21.789   7.534   8.242
20130W        W62141  21.269  15.064   2.048
20131W        W62142   2.609  16.194   8.222
20132W        W62143   2.929   1.504   3.032
20133W        W62144   2.379  24.151  10.422
20134W        W62145   9.049   6.494  14.682
20135W        W62146  15.219  19.464   2.028
20136W        W62147   8.919   2.144   8.972
20137W        W62148   5.739   5.244   8.432
20138W        W62149  23.629  11.764  15.042
20139W        W62150  11.929   7.764  10.302
20140W        W62151  24.629  24.351   1.858
20141W        W62152   8.719  13.134   0.568
20142W        W62153   5.339  18.034  15.472
20143W        W62154   4.789  23.101   2.782
20144W        W62155   1.709   6.994   8.522
20145W        W62156  18.749   0.614   1.458
20146W        W62157  17.679  14.874   2.178
20147W        W62158  19.969   9.934  10.842
20148W        W62159   3.679   3.274  14.592
20149W        W62160   1.569   8.884   8.102
20150W        W62161  14.409   2.374  10.252
20151W        W62162   9.479  23.861  15.802
20152W        W62163   8.189  21.691   0.308
20153W        W62164   7.229   6.854  11.422
20154W        W62165   7.799   9.524   0.328
20155W        W62166   0.229  11.654   8.542
20156W        W62167  25.109   2.274   8.132
20157W        W62168  16.319   7.744   0.848
20158W        W62169   7.059   2.574   8.162
20159W        W62170  20.199   3.224   2.058
20160W        W62171  18.679  12.124   0.058
20161W        W62172  10.159   6.124   1.168
20162W        W62173  17.149  12.634  15.372
20163W        W62174  15.109   5.694   3.632
20164W        W62175  23.449  14.504   7.902
20165W        W62176   2.879  20.354   9.802
20166W        W62177  16.689  12.614   1.668
20167W        W62178  10.349  21.771  10.532
20168W        W62179  15.199   8.794   1.028
20169W        W62180  21.069  13.434  11.862
20170W        W62181  22.829   2.374   7.732
20171W        W62182   9.649  21.094   8.182
20172W        W62183  10.899  22.211  11.122
20173W        W62184  11.959  16.404   3.312
20174W        W62185  11.139   3.784   1.628
20175W        W62186   8.789   7.874  14.422
20176W        W62187   3.069   6.494  15.462
20177W        W62188  12.909  12.464  14.642
20178W        W62189  17.179  16.964   1.418
20179W        W62190  10.079  17.584   9.522
20180W        W62191  18.099  12.454  10.432
20181W        W62192   5.539  15.394  15.352
20182W        W62193  24.649  24.031   9.622
20183W        W62194   4.689  15.314   1.808
20184W        W62195  20.199  13.624   2.038
20185W        W62196  10.799  18.934   2.008
20186W        W62197  13.519   2.774  15.282
20187W        W62198  11.019   0.894  10.162
20188W        W62199  13.119  22.561   9.252
20189W        W62200   0.389   2.064   7.212
20190W        W62201   2.289   7.304   2.418
20191W        W62202   3.819  20.204  10.802
20192W        W62203  22.429  25.501   8.222
20193W        W62204   9.009   2.914   0.998
20194W        W62205  20.299  19.534   9.222
20195W        W62206  21.099  13.404   2.148
20196W        W62207  23.459  11.844   3.172
20197W        W62208   7.449   9.564  10.422
20198W        W62209  23.029  21.204   0.478
20199W        W62210   9.829  20.964  10.332
20200W        W62211  14.559   3.984   2.842
20201W        W62212   7.659   9.764  15.252
20202W        W62213   2.779  23.311   0.688
20203W        W62214   0.769   7.474  11.452
20204W        W62215  21.829  17.264  10.312
20205W        W62216   6.779  21.194   9.442
20206W        W62217  24.129   7.114   2.572
20207W        W62218   1.079  11.954   0.128
20208W        W62219  14.489  17.464  15.612
20209W        W62220  14.199  16.494   2.408
20210W        W62221   3.419  21.234   9.902
20211W        W62222  13.169  17.004  10.062
20212W        W62223  20.109   1.834   8.462
20213W        W62224  23.559  10.244  10.652
20214W        W62225   2.519  18.874   1.468
20215W        W62226  19.519   7.334  10.362
20216W        W62227  12.739   8.314  10.472
20217W        W62228   5.919   8.034  10.802
20218W        W62229   1.029  16.674   0.938
20219W        W62230   7.329  23.581   3.622
20220W        W62231  24.109   2.424   9.432
20221W        W62232  11.169  22.711  10.292
20222W        W62233   0.129   4.654   8.462
20223W        W62234  14.199  22.281   0.748
20224W        W62235   2.129  13.374   7.782
20225W        W62236  12.509  23.051  11.112
20226W        W62237   6.169  21.641   0.448
20227W        W62238   7.629   1.064  11.552
20228W        W62239  18.099  12.084   3.432
20229W        W62240   3.599   1.924  10.042
20230W        W62241  22.879  12.914   9.662
20231W        W62242  18.929  17.784   9.612
20232W        W62243  11.619  24.401   9.902
20233W        W62244   7.599   1.334   1.958
20234W        W62245   2.019  23.121   0.398
20235W        W62246  14.649  12.764   2.942
20236W        W62247   7.879   2.614   4.182
20237W        W62248  18.449   1.794   9.002
20238W        W62249  17.699   2.084  10.492
20239W        W62250   7.549  13.124   1.838
20240W        W62251  24.019   5.514  15.262
20241W        W62252   6.589  15.294   9.032
20242W        W62253  11.669  18.524   4.482
20243W        W62254   1.079   8.334   7.652
20244W        W62255  19.499   4.424  15.002
20245W        W62256  19.089   1.244   0.718
20246W        W62257  16.419  20.384   9.602
20247W        W62258   1.439  20.464  10.962
20248W        W62259  20.909  16.324  11.052
20249W        W62260  25.239   3.504   2.872
20250W        W62261   9.809   2.384  10.162
20251W        W62262  17.999  24.991   3.162
20252W        W62263  10.949  15.644   1.978
20253W        W62264   5.909  18.994   2.692
20254W        W62265  13.279  15.684  10.092
20255W        W62266   1.739  10.994  10.292
20256W        W62267  12.969  17.494  15.282
20257W        W62268  20.099   9.874   3.022
20258W        W62269   5.089   5.784   1.898
20259W        W62270   2.409   9.684   1.058
20260W        W62271   5.259   2.584   8.752
20261W        W62272  25.539   8.404   7.242
20262W        W62273  10.379  13.484   1.958
20263W        W62274  21.999  10.144  11.012
20264W        W62275   8.199   4.934   8.512
20265W        W62276  24.699  14.694  10.802
20266W        W62277  10.519   8.934  15.382
20267W        W62278   4.059  11.224   3.492
20268W        W62279  11.399  14.324   2.752
20269W        W62280  23.429   0.064   1.208
20270W        W62281   7.589  23.421  11.012
20271W        W62282  18.069   1.494   2.398
20272W        W62283   7.709  21.044  10.662
20273W        W62284  11.439   2.094  10.592
20274W        W62285  16.969   6.474  11.062
20275W        W62286   0.539  17.974   0.808
20276W        W62287   3.619  15.524   8.082
20277W        W62288  18.359   1.804   3.702
20278W        W62289  12.559  24.101   3.242
20279W        W62290   8.929   5.084  10.242
20280W        W62291  17.809  22.861   9.802
20281W        W62292  18.279   3.934  10.792
20282W        W62293  11.309   7.904   0.708
20283W        W62294  16.769  21.631   2.752
20284W        W62295   5.869  10.634  11.112
20285W        W62296  11.729   6.774   2.982
20286W        W62297   0.021   3.354   2.098
20287W        W62298   7.449   1.764   1.788
20288W        W62299  17.699  19.674  15.472
20289W        W62300  21.099  18.824   2.288
20290W        W62301  21.899   5.884   4.162
20291W        W62302   2.599   3.634   7.482
20292W        W62303  15.569  11.244  13.952
20293W        W62304  16.819   0.724   7.672
20294W        W62305  21.789  19.694   0.918
20295W        W62306   7.369  16.434  10.092
20296W        W62307   4.789  22.751  10.192
20297W        W62308  20.819   4.744   3.292
20298W        W62309  23.109   7.244   8.862
20299W        W62310   8.119  20.564   3.892
20300W        W62311  18.099  17.014   1.968
20301W        W62312  21.369  12.734  11.382
20302W        W62313  13.399   5.734   2.772
20303W        W62314   6.079   0.884   9.462
20304W        W62315  14.139  24.961   1.558
20305W        W62316   4.189   2.394   1.288
20306W        W62317  18.999  19.454  12.232
20307W        W62318  12.539  20.254   9.862
20308W        W62319   9.049  18.094   9.902
20309W        W62320   0.499  18.634   2.862
20310W        W62321   2.769  25.041   3.022
20311W        W62322  11.329   3.924  15.482
20312W        W62323  22.799   5.704   9.962
20313W        W62324  24.519  14.224   0.788
20314W        W62325  10.489   4.274  10.382
20315W        W62326  17.899  12.814   8.412
20316W        W62327  16.249   5.834   2.532
20317W        W62328   1.909   7.564   0.928
20318W        W62329  15.679  19.444  10.372
20319W        W62330   9.899   6.484   2.458
20320W        W62331  16.709  13.764   8.612
20321W        W62332   0.011  20.394  15.532
20322W        W62333   9.419   2.474   2.622
20323W        W62334   6.569  12.534   1.858
20324W        W62335   7.639  20.514  11.302
20325W        W62336  15.419  24.881   4.332
20326W        W62337  15.239   2.764  10.492
20327W        W62338  19.649  18.954   2.922
20328W        W62339  11.369   4.804   9.692
20329W        W62340  10.409   3.904   3.682
20330W        W62341  10.039  14.284   2.098
20331W        W62342  18.899  10.074   9.992
20332W        W62343  19.899   6.194  15.602
20333W        W62344  16.709   4.394   8.972
20334W        W62345  20.079  15.834   2.038
20335W        W62346  20.869   8.354   2.802
20336W        W62347  11.059   7.374   9.932
20337W        W62348  17.439  17.384   0.758
20338W        W62349  18.829  16.814  10.702
20339W        W62350   5.719  24.631  12.032
20340W        W62351  10.619  24.761   1.318
20341W        W62352   5.659  14.254  15.022
20342W        W62353  18.869   1.364   8.392
20343W        W62354  15.199   2.274  11.752
20344W        W62355   4.229   8.414   1.758
20345W        W62356   7.929  16.814  10.922
20346W        W62357   6.279  14.434   2.852
20347W        W62358  21.379   0.704   9.742
20348W        W62359  25.539   7.564   2.532
20349W        W62360   4.229  10.124   8.532
20350W        W62361  22.259   2.404   2.398
20351W        W62362  19.789  24.671   1.548
20352W        W62363  14.469  10.394   2.068
20353W        W62364  17.139   5.574  10.132
20354W        W62365  20.639   1.664   3.292
20355W        W62366  12.369  17.234   9.002
20356W        W62367  14.609  17.484   1.358
20357W        W62368   3.449  21.821   9.192
20358W        W62369  21.059  10.544   3.012
20359W        W62370  11.269   4.554   1.688
20360W        W62371  22.599   3.464  12.182
20361W        W62372  21.489  18.744   3.112
20362W        W62373  16.879  21.124   8.112
20363W        W62374  12.339  21.991   3.432
20364W        W62375   7.959  12.044   9.982
20365W        W62376  20.209  14.404   2.992
20366W        W62377  12.729  21.381  11.442
20367W        W62378   4.809  11.764   1.078
20368W        W62379   6.609   3.034   2.802
20369W        W62380  19.889  15.364  11.852
20370W        W62381   5.379  19.914   2.398
20371W        W62382   9.549  19.824   9.092
20372W        W62383   9.799  10.914  10.952
20373W        W62384  11.169   4.254   8.572
20374W        W62385   7.529  19.664   8.662
20375W        W62386   0.089   4.424  11.112
20376W        W62387  10.349   7.954   1.458
20377W        W62388  17.999   1.364  12.432
20378W        W62389  16.019  11.524  10.252
20379W        W62390  25.459   3.634   8.512
20380W        W62391   9.309  16.244   2.428
20381W        W62392   9.849   0.864  10.532
20382W        W62393  14.659   5.734  10.972
20383W        W62394  10.089  23.881   1.938
20384W        W62395  17.559  16.534  15.422
20385W        W62396  19.209  13.144  10.392
20386W        W62397  18.819  25.561   2.068
20387W        W62398   5.229   6.844  10.672
20388W        W62399  23.939  10.114   8.692
20389W        W62400  20.869  20.814   0.898
20390W        W62401   0.999  17.234  10.292
20391W        W62402  21.749   2.274   3.682
20392W        W62403  21.509  17.474   3.872
20393W        W62404  24.689  10.194  10.122
20394W        W62405  11.009   0.344   3.912
20395W        W62406  15.189  20.154   9.542
20396W        W62407  11.719   8.394   0.998
20397W        W62408  22.809   1.174   9.192
20398W        W62409   1.679   4.654   1.658
20399W        W62410  23.889  23.151  10.392
20400W        W62411  24.209   7.234   1.628
20401W        W62412  24.219   5.274   9.692
20402W        W62413   9.649  16.594   0.688
20403W        W62414  10.179   0.744   9.122
20404W        W62415   3.499  22.641   0.538
20405W        W62416   1.739  20.404  11.362
20406W        W62417  24.539  19.304   1.678
20407W        W62418  13.159   7.524  10.862
20408W        W62419   4.619   0.754  10.622
20409W        W62420   6.259  16.304  10.052
20410W        W62421   8.779   0.114   0.178
20411W        W62422  15.589  12.714   1.878
20412W        W62423  19.249  21.851   3.562
20413W        W62424   2.729  15.594   0.988
20414W        W62425  14.679  10.594   1.118
20415W        W62426  24.219   4.724   1.208
20416W        W62427   0.929  24.121   3.362
20417W        W62428   3.119   8.664  10.702
20418W        W62429   0.999  23.631   2.028
20419W        W62430  14.099  12.154   1.718
20420W        W62431   8.529  15.994   9.492
20421W        W62432  16.959   9.294   2.138
20422W        W62433   9.359  24.081   9.432
20423W        W62434  20.679  15.144   1.918
20424W        W62435  11.609   0.794   0.158
20425W        W62436  18.349  20.314   9.152
20426W        W62437   0.229   4.234  10.642
20427W        W62438  18.759  19.034  12.382
20428W        W62439  17.839   0.894   7.882
20429W        W62440   7.999   9.164   3.752
20430W        W62441  23.149  17.944   1.618
20431W        W62442  20.809  16.054   3.872
20432W        W62443  23.389   0.324  11.182
20433W        W62444  21.389  25.561   2.228
20434W        W62445   0.229  12.964   9.352
20435W        W62446  17.909   3.564  11.672
20436W        W62447   1.219   7.784   9.902
20437W        W62448  11.449   0.744   4.282
20438W        W62449   1.759   1.444   3.202
20439W        W62450   2.249  18.194  10.412
20440W        W62451  16.559   8.194   1.338
20441W        W62452  11.919  20.324   2.572
20442W        W62453   4.509   6.084  10.182
20443W        W62454   1.149   2.844  10.542
20444W        W62455   2.509  13.244   3.102
20445W        W62456  11.409  25.231   9.762
20446W        W62457  13.939  16.114   2.552
20447W        W62458  18.199  17.184   7.942
20448W        W62459   0.679  21.314   0.378
20449W        W62460   1.019   7.654  11.062
20450W        W62461  22.849  22.691  11.472
20451W        W62462   0.459   4.434   7.222
20452W        W62463  14.819   1.504   4.482
20453W        W62464   8.659  24.961   2.552
20454W        W62465  12.059  17.754  10.452
20455W        W62466  10.789  12.374  14.682
20456W        W62467  13.239  20.184   0.358
20457W        W62468  21.719  21.054   8.852
20458W        W62469  21.809  20.264   7.792
20459W        W62470   8.569   5.034  11.122
20460W        W62471  13.469  21.951   1.458
20461W        W62472  22.549  19.144  11.122
20462W        W62473   6.099  21.531   8.492
20463W        W62474  18.179  13.824   3.232
20464W        W62475  17.009  10.164  15.502
20465W        W62476  11.639   9.564   4.202
20466W        W62477  15.019  20.554   3.852
20467W        W62478  22.079  24.271   8.852
20468W        W62479  21.039   2.134   9.792
20469W        W62480  16.749  14.544   8.922
20470W        W62481  17.569  10.574   2.782
20471W        W62482  20.799  19.444  10.022
20472W        W62483   7.599  22.171  11.912
20473W        W62484  13.799   7.514   3.942
20474W        W62485  13.439   5.644   9.272
20475W        W62486   5.109  23.281  10.262
20476W        W62487   5.039   3.994   2.298
20477W        W62488  25.159  22.261  10.662
20478W        W62489  24.649   1.404  10.712
20479W        W62490  19.109   7.184   1.198
20480W        W62491  16.159  16.964   2.108
20481W        W62492  18.339  21.861   1.228
20482W        W62493  16.819  16.934   3.452
20483W        W62494  18.199   3.244   7.492
20484W        W62495  25.479  23.661  11.662
20485W        W62496   6.129   6.414  10.852
20486W        W62497  12.309   9.164  10.942
20487W        W62498  18.369  20.624  15.702
20488W        W62499   0.069   1.244  11.912
20489W        W62500  17.869  16.994   8.272
20490W        W62501   6.039   7.314   3.362
20491W        W62502  18.959  14.114   0.668
20492W        W62503  12.259   6.904   1.328
20493W        W62504  21.799  14.104   2.148
20494W        W62505   6.139  24.591   8.602
20495W        W62506   1.319  10.744  15.422
20496W        W62507   2.909  25.431   3.752
20497W        W62508  21.399  19.394   6.962
20498W        W62509  24.329  14.564   3.072
20499W        W62510  16.689  13.404   0.568
20500W        W62511   5.299  22.111  11.232
20501W        W62512  18.289  23.781   7.942
20502W        W62513  17.109  18.804  10.062
20503W        W62514  21.239  23.111  10.862
20504W        W62515  14.409  25.301  10.052
20505W        W62516   8.249   0.414   8.572
20506W        W62517  21.189  21.921  11.372
20507W        W62518   8.899  19.664  10.992
20508W        W62519   1.239   2.874   2.802
20509W        W62520   8.099  10.824  10.182
20510W        W62521  14.079  25.331  15.612
20511W        W62522  19.599  23.791   2.752
20512W        W62523   4.559   3.504   9.002
20513W        W62524   9.539  12.904   2.762
20514W        W62525  19.399   0.124  15.832
20515W        W62526  10.689  21.501  14.832
20516W        W62527   1.209  20.614   1.438
20517W        W62528   9.529   8.194   9.532
20518W        W62529  17.639  23.771  11.422
20519W        W62530  13.119  24.871   9.952
20520W        W62531  24.169  10.834  11.612
20521W        W62532   5.389   0.404   9.562
20522W        W62533   2.109  24.921  15.462
20523W        W62534   9.399  11.504   8.792
20524W        W62535   8.769  24.661   9.902
20525W        W62536  21.019  16.524   2.428
20526W        W62537   8.579  23.721   1.618
20527W        W62538   5.409   9.714  15.282
20528W        W62539  22.229  15.434   7.912
20529W        W62540  25.479  11.784   2.268
20530W        W62541   5.059   1.804  15.422
20531W        W62542  14.359  14.684   0.248
20532W        W62543   1.729  25.461  11.222
20533W        W62544  18.289  18.154  11.012
20534W        W62545   2.749   6.354  11.412
20535W        W62546  12.429  12.514   3.112
20536W        W62547   6.299  24.551   2.388
20537W        W62548   1.919  10.194   9.482
20538W        W62549   9.339   9.464   0.288
20539W        W62550   5.719  10.524   2.842
20540W        W62551  15.589  15.244   2.672
20541W        W62552   0.699  11.854   3.972
20542W        W62553  21.529   8.394  15.212
20543W        W62554  18.679  20.844   7.512
20544W        W62555   0.779   3.184   9.232
20545W        W62556  22.269   9.484   2.962
20546W        W62557  25.529   5.124   8.482
20547W        W62558  15.349   2.314   2.308
20548W        W62559  22.559  12.804   3.112
20549W        W62560  10.549  10.294   0.238
20550W        W62561   5.709  23.621  10.462
20551W        W62562  22.789  25.541   0.688
20552W        W62563  11.529   7.234   3.232
20553W        W62564   8.279   6.934   1.488
20554W        W62565  12.609  19.554   7.752
20555W        W62566  24.779  17.174   0.298
20556W        W62567   8.479   2.504  10.152
20557W        W62568  14.979  23.011  15.362
20558W        W62569   6.789  15.714   8.522
20559W        W62570  20.489  12.964   9.782
20560W        W62571  24.889  18.234   8.962
20561W        W62572  13.839  16.634  10.432
20562W        W62573   0.469   9.374  10.532
20563W        W62574  25.049   9.234  11.292
20564W        W62575   3.039   4.254   0.248
20565W        W62576   1.159  13.304   9.952
20566W        W62577  10.579  17.734   9.442
20567W        W62578  15.599  20.914  11.342
20568W        W62579   8.749  23.951   1.238
20569W        W62580  13.219   9.554   0.018
20570W        W62581  16.699  18.214   0.848
20571W        W62582   0.389   7.894   2.782
20572W        W62583  16.979  13.704   9.102
20573W        W62584   9.449  11.624  15.042
20574W        W62585  17.999   7.334   2.852
20575W        W62586  14.689   7.374  10.982
20576W        W62587   1.269   4.014   7.372
20577W        W62588  23.129  12.924   0.728
20578W        W62589  12.019  23.351   1.818
20579W        W62590  25.229  10.754   7.262
20580W        W62591  15.859   0.744   7.552
20581W        W62592   7.279  20.154   8.692
20582W        W62593  11.069  14.084   9.182
20583W        W62594  10.109   4.964   9.122
20584W        W62595   7.949  15.124   3.662
20585W        W62596  21.039  15.344  11.232
20586W        W62597  14.859   7.734   8.622
20587W        W62598   9.689   1.824  15.482
20588W        W62599  18.769  15.604   1.558
20589W        W62600  15.829  15.514   1.308
20590W        W62601   7.319  22.221   2.098
20591W        W62602  16.749  12.884   3.982
20592W        W62603  15.729  19.424   2.692
20593W        W62604  15.129  13.664   1.018
20594W        W62605  24.749  16.114   8.352
20595W        W62606  16.019   7.904   4.652
20596W        W62607  18.409   1.044   2.478
20597W        W62608  10.809  11.574  10.102
20598W        W62609  18.499  13.844   1.408
20599W        W62610   8.159   5.904   1.908
20600W        W62611   1.209  22.411   1.158
20601W        W62612  13.399   8.044   9.262
20602W        W62613  23.259   7.574   2.942
20603W        W62614   5.809  14.674   7.102
20604W        W62615  21.639   7.514  10.012
20605W        W62616   7.089  17.494   7.002
20606W        W62617   8.569  11.904   8.412
20607W        W62618  10.589  22.461  15.512
20608W        W62619   0.909   0.774   9.522
20609W        W62620  21.159   8.514  10.972
20610W        W62621  13.269   2.844   9.902
20611W        W62622   2.489  22.891   0.588
20612W        W62623   2.199   3.014  11.232
20613W        W62624  24.059   6.064   9.842
20614W        W62625   7.759  19.634   1.898
20615W        W62626  14.289   6.434  15.462
20616W        W62627  16.189  25.181   8.052
20617W        W62628  17.639  18.164   3.102
20618W        W62629  24.139  24.421   2.118
20619W        W62630  15.129   1.094   4.442
20620W        W62631   3.949   5.234  14.872
20621W        W62632  13.749  22.061   2.592
20622W        W62633  11.699   2.874   1.848
20623W        W62634   5.169   3.054   2.742
20624W        W62635  16.609  18.014   4.332
20625W        W62636  16.609   3.254   2.622
20626W        W62637   6.509   9.664   2.428
20627W        W62638   5.399  13.464  10.762
20628W        W62639  20.479  24.151  11.472
20629W        W62640  20.809   5.674   9.312
20630W        W62641  16.249  23.651   7.542
20631W        W62642  23.959  13.944   9.212
20632W        W62643   4.509  15.864   8.212
20633W        W62644  11.829   0.124  15.512
20634W        W62645   7.039  17.174  11.072
20635W        W62646  20.719  15.804   9.482
20636W        W62647  18.739  11.704   1.798
20637W        W62648  16.189  11.614  14.892
20638W        W62649  14.039  18.564   0.868
20639W        W62650  23.569   3.814   2.692
20640W        W62651  16.189   8.374  14.512
20641W        W62652   8.059  13.584   8.382
20642W        W62653   4.449  16.364   7.182
20643W        W62654  10.469  25.531   2.672
20644W        W62655  14.069   7.464   3.472
20645W        W62656   2.459   4.044   2.428
20646W        W62657   0.509  10.444   9.112
20647W        W62658  15.139  10.644  14.882
20648W        W62659  13.269  19.784   3.522
20649W        W62660  15.769   0.744   8.482
20650W        W62661  21.499  12.084   0.228
20651W        W62662   6.199  10.504   2.128
20652W        W62663  13.539  13.694  15.412
20653W        W62664  19.789  14.614   8.232
20654W        W62665  14.929  16.474  10.422
20655W        W62666   7.669   3.034  15.622
20656W        W62667  19.249  18.674  10.202
20657W        W62668   6.229   9.394   1.558
20658W        W62669  21.569   0.924   0.878
20659W        W62670   3.399   4.634   9.902
20660W        W62671  14.249  22.441  10.102
20661W        W62672   0.569   8.164   8.652
20662W        W62673  10.539  23.471   1.558
20663W        W62674   4.659  13.244   1.178
20664W        W62675  13.379   9.824  14.492
20665W        W62676   2.189  16.554   2.398
20666W        W62677   6.659   9.984   9.412
20667W        W62678   8.979   0.814   1.398
20668W        W62679  18.249   2.374  11.532
20669W        W62680  17.139  19.644   1.768
20670W        W62681  18.349  10.924  14.822
20671W        W62682  20.909   9.434  10.722
20672W        W62683  25.019  22.251   8.312
20673W        W62684  14.219   7.434   9.442
20674W        W62685  18.599  11.784  14.752
20675W        W62686  21.899   0.314   1.678
20676W        W62687   9.099   5.224  15.842
20677W        W62688   5.849  10.424   9.232
20678W        W62689  19.349  18.534   8.142
20679W        W62690  18.819   2.724   8.252
20680W        W62691   7.619  22.261   0.888
20681W        W62692  15.509   6.844  14.912
20682W        W62693   4.589  16.974   2.208
20683W        W62694   5.599  12.754   1.178
20684W        W62695  25.039  11.724   1.358
20685W        W62696   7.309   0.924   2.068
20686W        W62697  20.309   2.644   8.192
20687W        W62698  15.689   4.384  11.472
20688W        W62699  11.309  21.511  11.782
20689W        W62700  10.919   2.054   0.698
20690W        W62701  19.619   8.184   1.988
20691W        W62702  17.309  21.971  10.232
20692W        W62703  24.789   3.744   2.622
20693W        W62704  13.899   4.774   3.392
20694W        W62705  19.809  13.134   3.952
20695W        W62706  14.819  20.144   9.202
20696W        W62707  12.439  11.894   4.162
20697W        W62708  10.589  13.354  10.042
20698W        W62709   9.679  13.404   1.078
20699W        W62710  13.449  15.284   2.248
20700W        W62711  15.479  10.714  10.592
20701W        W62712  22.969  23.861   3.722
20702W        W62713  23.449  13.844   1.068
20703W        W62714   2.499  16.174   2.418
20704W        W62715  23.329  21.941   7.032
20705W        W62716  20.879  12.974   3.222
20706W        W62717  24.469  22.451   8.232
20707W        W62718  10.739   5.054   1.848
20708W        W62719  17.199   2.384   2.782
20709W        W62720  10.849   2.744   1.318
20710W        W62721   0.789  11.694  15.662
20711W        W62722   0.649   3.374   9.802
20712W        W62723   6.879  20.704   2.872
20713W        W62724  19.329  11.414   2.478
20714W        W62725   6.499  15.854  15.872
20715W        W62726  11.549  19.904   9.522
20716W        W62727  14.869   8.744   3.472
20717W        W62728  21.759  18.144  12.772
20718W        W62729  24.169  16.004  10.652
20719W        W62730  21.009   8.854   9.352
20720W        W62731  20.139  21.184   9.602
20721W        W62732  19.889   9.774   0.498
20722W        W62733   4.489  11.874   3.072
20723W        W62734  15.569  15.234   1.718
20724W        W62735  15.989   0.024  11.152
20725W        W62736  18.219  23.691  10.132
20726W        W62737   9.259  14.414   4.142
20727W        W62738   4.129  11.174  15.472
20728W        W62739  24.159   7.554  11.202
20729W        W62740  24.989   7.444   7.312
20730W        W62741   4.099   2.794  15.422
20731W        W62742  17.569  22.351   7.702
20732W        W62743   7.529   6.074   8.732
20733W        W62744  13.459  12.394   2.448
20734W        W62745   0.909  21.154   2.228
20735W        W62746  19.769   2.064  12.042
20736W        W62747  14.459   0.214   8.742
20737W        W62748  22.119  21.971   2.932
20738W        W62749   6.979   9.234   1.128
20739W        W62750  23.559  14.314   3.072
20740W        W62751   1.319   7.284  11.292
20741W        W62752   5.199   5.864   4.012
20742W        W62753   0.259  18.914   8.762
20743W        W62754  20.509   5.984  10.822
20744W        W62755  10.139  10.054   3.052
20745W        W62756   4.689  14.014   2.792
20746W        W62757   0.919   1.084   2.048
20747W        W62758  25.239   5.264   8.112
20748W        W62759   0.189   0.734   9.342
20749W        W62760   1.429   9.264   6.792
20750W        W62761  17.449   2.314   2.348
20751W        W62762  25.179  24.311  15.582
20752W        W62763   6.019   6.504   1.158
20753W        W62764  21.309   6.334   7.682
20754W        W62765   6.389   0.744   8.062
20755W        W62766  24.839   7.944  10.782
20756W        W62767  25.179  16.984   1.728
20757W        W62768  10.789  24.971  10.852
20758W        W62769  21.709  15.194  10.632
20759W        W62770   9.829  13.124   3.382
20760W        W62771  12.889  17.974   1.538
20761W        W62772   1.369  22.121   8.562
20762W        W62773   3.419  12.424   1.908
20763W        W62774   3.919   6.294   7.732
20764W        W62775  15.539  17.974  10.982
20765W        W62776  24.109  11.614   1.558
20766W        W62777  18.659   7.294   2.842
20767W        W62778  20.979   4.234   3.452
20768W        W62779  22.789  15.494  11.862
20769W        W62780   7.629  11.804  10.312
20770W        W62781  11.929   2.474   2.772
20771W        W62782  16.429   0.584   0.348
20772W        W62783  10.779   7.034   2.692
20773W        W62784   4.649   6.214   6.472
20774W        W62785  23.119  10.344  15.872
20775W        W62786  14.679  15.844   8.742
20776W        W62787  23.939  10.534  10.952
20777W        W62788  18.729   3.644  15.672
20778W        W62789  17.189   5.204   7.802
20779W        W62790   3.429  25.431   0.728
20780W        W62791  20.459   4.274   2.058
20781W        W62792   1.429  24.991   8.672
20782W        W62793  21.879  16.214   2.458
20783W        W62794  17.699  22.321   9.962
20784W        W62795  21.949  12.704  15.512
20785W        W62796   6.359  19.314   9.142
20786W        W62797  12.139   8.234   0.718
20787W        W62798  11.109  11.024   9.352
20788W        W62799  17.259   0.524  15.692
20789W        W62800   0.001  10.554  10.112
20790W        W62801  24.339  18.724  10.392
20791W        W62802   5.829   6.894   1.468
20792W        W62803   8.089  22.031   1.078
20793W        W62804   0.011  25.001  10.872
20794W        W62805   5.379  21.611   0.048
20795W        W62806   0.959   0.264   2.562
20796W        W62807  17.849   0.224  11.622
20797W        W62808   1.379  22.971   4.182
20798W        W62809   2.219   7.084  15.602
20799W        W62810  21.619  20.644   2.702
20800W        W62811  24.089   4.254   0.798
20801W        W62812   5.439   9.394   8.892
20802W        W62813   9.469   6.254   3.152
20803W        W62814  16.239  11.034   3.462
20804W        W62815  12.529   4.534   3.592
20805W        W62816  18.089  19.004   9.382
20806W        W62817  18.479   5.394   8.432
20807W        W62818  11.559   9.734   2.038
20808W        W62819  22.069   8.584   9.682
20809W        W62820  16.049  19.264  11.212
20810W        W62821  23.059   2.504   8.562
20811W        W62822   9.469  12.704   9.792
20812W        W62823   5.149  20.214   1.378
20813W        W62824  11.919  19.664   3.732
20814W        W62825   7.639  12.134  11.152
20815W        W62826   5.689  17.184   1.918
20816W        W62827   4.539  18.624   9.232
20817W        W62828   3.049  23.201  10.862
20818W        W62829  24.009   7.794  10.262
20819W        W62830  20.529  12.474   8.112
20820W        W62831  11.819   9.794   9.312
20821W        W62832  14.849  23.141   1.288
20822W        W62833  12.449   0.744   8.922
20823W        W62834   3.449   2.634  11.972
20824W        W62835   1.179  18.884   2.348
20825W        W62836   3.029   1.474   9.072
20826W        W62837  24.119   5.484   8.932
20827W        W62838   5.399   6.874   1.818
20828W        W62839   2.869   3.184   8.022
20829W        W62840  13.269  19.364  15.262
20830W        W62841   4.959  25.331   7.502
20831W        W62842  16.469   7.734   3.222
20832W        W62843   0.259  14.314  10.042
20833W        W62844  23.159   5.794   1.488
20834W        W62845   6.599   5.324   1.138
20835W        W62846  25.089  13.014   1.898
20836W        W62847   2.269   1.804   8.392
20837W        W62848   7.419   0.754   0.958
20838W        W62849  14.379  18.024   9.042
20839W        W62850  19.769  20.894   0.698
20840W        W62851   5.699  17.494   8.682
20841W        W62852   4.899   5.014  15.162
20842W        W62853  11.439  24.611   2.792
20843W        W62854  17.369   9.004   0.198
20844W        W62855  18.829  18.194   7.302
20845W        W62856  25.549  19.644   0.678
20846W        W62857   7.409   5.264   3.262
20847W        W62858  23.149   7.154   3.212
20848W        W62859  21.889  17.294   2.992
20849W        W62860  20.809   1.814   9.482
20850W        W62861  19.459  24.251   0.638
20851W        W62862   6.289  24.761   3.242
20852W        W62863  21.989  14.164   1.298
20853W        W62864  21.399  25.371   3.382
20854W        W62865   9.159  17.554  10.622
20855W        W62866  13.139  17.724   3.242
20856W        W62867  20.449  10.744   1.468
20857W        W62868  17.179   5.824   8.242
20858W        W62869  10.669  24.901   0.828
20859W        W62870  22.889   2.264  15.582
20860W        W62871  11.619  24.261  10.392
20861W        W62872  13.769  15.024   1.838
20862W        W62873   4.579   4.154  15.382
20863W        W62874  19.479  19.174  11.202
20864W        W62875   9.229  17.734  10.172
20865W        W62876  23.849  16.174   2.068
20866W        W62877   6.909  10.824  11.322
20867W        W62878   3.559   5.104   7.312
20868W        W62879  13.609  13.744  14.282
20869W        W62880  16.309  11.974   9.022
20870W        W62881   6.299  14.984   3.812
20871W        W62882   2.529  14.104  15.082
20872W        W62883  10.919   7.054   0.398
20873W        W62884  19.249  16.314   2.038
20874W        W62885   5.909  16.614   0.998
20875W        W62886   6.089  23.641   8.632
20876W        W62887  16.409  21.314   1.028
20877W        W62888  15.759  23.721   4.012
20878W        W62889  13.409   7.104   9.222
20879W        W62890   3.039   4.474  10.762
20880W        W62891   5.119  21.671   2.772
20881W        W62892   3.349  14.684   9.802
20882W        W62893   1.759   1.224   0.098
20883W        W62894  13.129   0.194  15.332
20884W        W62895  18.199  24.441   9.492
20885W        W62896  23.969   2.664  10.912
20886W        W62897  16.009  20.314  15.622
20887W        W62898   0.839  12.654   0.638
20888W        W62899   3.529  23.141   1.238
20889W        W62900   7.159  10.734   1.608
20890W        W62901   1.909  24.861   8.502
20891W        W62902  23.939  12.994   9.952
20892W        W62903   9.789   3.664   8.362
20893W        W62904   8.119  17.864   3.912
20894W        W62905  22.519   0.954   8.212
20895W        W62906   9.919  24.771  15.832
20896W        W62907   3.399   5.664   2.298
20897W        W62908   2.899  15.394   1.708
20898W        W62909   5.169  24.631   9.702
20899W        W62910  25.019  10.184   7.552
20900W        W62911  14.359   6.214   4.192
20901W        W62912  19.809   2.194   8.672
20902W        W62913  18.729  14.694  10.232
20903W        W62914   0.579   0.494   2.752
20904W        W62915  17.019  16.144  11.332
20905W        W62916  18.819  24.591  10.742
20906W        W62917   0.929  22.381   1.668
20907W        W62918  13.239  15.544   8.952
20908W        W62919   8.979  12.064   1.408
20909W        W62920  18.629  18.574   0.638
20910W        W62921  25.379  21.931   8.322
20911W        W62922   3.569  16.934  15.512
20912W        W62923   2.139  21.671   2.188
20913W        W62924  17.929   4.614   2.458
20914W        W62925  17.689   5.114   3.452
20915W        W62926   7.639  25.581   0.348
20916W        W62927   4.989   4.274  10.152
20917W        W62928   6.979   6.334  15.362
20918W        W62929   3.029  25.401  10.312
20919W        W62930  19.089   9.954   1.628
20920W        W62931  10.649   9.234   3.512
20921W        W62932  18.849  14.184  10.242
20922W        W62933  12.089  18.014   4.602
20923W        W62934   6.559   4.954   2.772
20924W        W62935   6.919  18.244   2.792
20925W        W62936  12.899  17.694  15.732
20926W        W62937  14.269  18.024   8.092
20927W        W62938  19.039   2.624   0.858
20928W        W62939  11.529  16.674   3.402
20929W        W62940   9.659  11.084   9.452
20930W        W62941   0.449   5.694   0.508
20931W        W62942  15.829  24.161   3.702
20932W        W62943  13.609  15.464   5.412
20933W        W62944   7.859   2.024   3.112
20934W        W62945  13.979  23.001   0.298
20935W        W62946  22.179  24.671  12.672
20936W        W62947   1.459   1.144   1.948
20937W        W62948  24.519   6.124  15.822
20938W        W62949  21.689   8.334   9.602
20939W        W62950   8.919  19.044   4.532
20940W        W62951  21.709  17.464  15.722
20941W        W62952  16.469   5.214   0.288
20942W        W62953   4.809  23.041  10.682
20943W        W62954  16.259  18.474   9.602
20944W        W62955   4.969   5.034   0.658
20945W        W62956   5.279  21.511   3.602
20946W        W62957  12.119   9.464   0.008
20947W        W62958  16.999  17.904   1.188
20948W        W62959  12.949   1.494  11.122
20949W        W62960   9.979  15.554  10.222
20950W        W62961   9.909  14.134  11.662
20951W        W62962  13.549  19.064   2.098
20952W        W62963  15.999   2.674   8.312
20953W        W62964   0.609  14.564   9.282
20954W        W62965  22.819  23.791  11.112
20955W        W62966   4.229   0.414   2.008
20956W        W62967  20.579   2.084  11.182
20957W        W62968  18.079  11.984  10.462
20958W        W62969  12.029   5.254   1.888
20959W        W62970   0.649  23.691   1.488
20960W        W62971  14.149  23.941  11.282
20961W        W62972   6.479  16.164   8.572
20962W        W62973  10.059  14.794   5.022
20963W        W62974  10.269  12.974  10.172
20964W        W62975  20.399   4.224  10.822
20965W        W62976   4.749  12.184   9.842
20966W        W62977   2.329  24.601  11.362
20967W        W62978   8.099  20.604   1.458
20968W        W62979  12.659   2.244  15.272
20969W        W62980  11.019  23.751  10.662
20970W        W62981   0.189   7.804   0.778
20971W        W62982   8.029   9.944   3.522
20972W        W62983   0.639  14.484   7.362
20973W        W62984  20.849   1.384   2.478
20974W        W62985  15.139  15.474  15.492
20975W        W62986  12.819   8.964   3.902
20976W        W62987  11.039  14.784   5.732
20977W        W62988  21.359   7.544   0.628
20978W        W62989  10.759   4.614  15.192
20979W        W62990   8.109   1.244   1.598
20980W        W62991  12.379  16.024   0.008
20981W        W62992   7.109   8.754   3.122
20982W        W62993   9.939  17.144   3.642
20983W        W62994  22.419  21.431   7.322
20984W        W62995  16.249   4.184   3.152
20985W        W62996   2.489  23.161   8.042
20986W        W62997  21.119  14.464   0.148
20987W        W62998   6.649  11.954   3.092
20988W        W62999   9.649  23.481   9.862
20989W        W63000   3.379   7.524   1.008
20990W        W63001  11.449   0.224   4.152
20991W        W63002   5.609   4.714   8.292
20992W        W63003  15.439  16.374   0.838
20993W        W63004  21.019  21.521   7.872
20994W        W63005  15.459   8.344   8.042
20995W        W63006  10.779  22.711   9.942
20996W        W63007   3.589  24.811  10.822
20997W        W63008   4.379   1.264  10.582
20998W        W63009   0.099  12.844  11.902
20999W        W63010   9.079   5.184   9.182
21000W        W63011  22.339  12.104   9.342
21001W        W63012  20.859   3.314  10.842
21002W        W63013   2.109  14.924  10.912
21003W        W63014  12.999  23.381  11.182
21004W        W63015  12.449  21.324   1.048
21005W        W63016  11.909  15.864   0.808
21006W        W63017  19.659  12.224   9.032
21007W        W63018  14.169  23.761   8.782
21008W        W63019  21.839   7.884   6.732
21009W        W63020   5.169  20.654   9.952
21010W        W63021  17.379   0.994   2.992
21011W        W63022   3.459  14.624   8.972
21012W        W63023  18.019  19.684   3.632
21013W        W63024   6.119  21.094   3.852
21014W        W63025  19.039  23.631  11.572
21015W        W63026   3.969  17.734   9.442
21016W        W63027   0.939   5.804  10.152
21017W        W63028  15.709  16.314  11.152
21018W        W63029  23.399  15.524  10.512
21019W        W63030  23.869   1.804   1.928
21020W        W63031  16.769  23.101   3.492
21021W        W63032   0.749  21.204   9.602
21022W        W63033  10.839   6.664   2.268
21023W        W63034  24.829   3.954  15.552
21024W        W63035  13.089  11.164   0.728
21025W        W63036  16.489   0.124   8.182
21026W        W63037   9.819  15.764  11.482
21027W        W63038  24.379  23.431   1.718
21028W        W63039   9.729   9.994  15.412
21029W        W63040  19.399  14.984   2.802
21030W        W63041  14.799  25.411   1.668
21031W        W63042  21.759   8.914   9.712
21032W        W63043   3.609  15.484   0.608
21033W        W63044   1.449  25.571   2.782
21034W        W63045   9.279   7.814   0.298
21035W        W63046  14.789   5.344   1.178
21036W        W63047  22.359   7.744   0.828
21037W        W63048  11.659   0.314  11.672
21038W        W63049   7.609  11.584   8.792
21039W        W63050   6.619  24.531   8.392
21040W        W63051   0.629  13.724   2.138
21041W        W63052  22.499  14.354   0.278
21042W        W63053   1.619  22.461   8.232
21043W        W63054   5.649  19.374   8.302
21044W        W63055  23.579  12.564   9.102
21045W        W63056   1.589  22.361   0.718
21046W        W63057   4.879  20.854  11.132
21047W        W63058  13.819  13.064   2.922
21048W        W63059   9.809  12.244   0.878
21049W        W63060  10.659  11.254  10.522
21050W        W63061  25.409   9.764   8.842
21051W        W63062   9.349  11.624   8.282
21052W        W63063   4.029   0.784   9.552
21053W        W63064  23.339   2.374   0.978
21054W        W63065  12.859  12.564  15.162
21055W        W63066   6.239  23.761   9.572
21056W        W63067   1.179  13.604  10.472
21057W        W63068  12.619  23.801   1.008
21058W        W63069  14.209  11.254  14.132
21059W        W63070   9.109   8.064   2.338
21060W        W63071   7.019  22.891   0.828
21061W        W63072   7.189  13.264   2.178
21062W        W63073   7.729   5.514   2.852
21063W        W63074  12.939  10.974   0.308
21064W        W63075  18.309  18.844   2.602
21065W        W63076  19.469  13.324   1.108
21066W        W63077   2.899   4.654  11.282
21067W        W63078  23.499  13.454   3.302
21068W        W63079   1.539  12.434   3.002
21069W        W63080   2.929   5.744   7.172
21070W        W63081   6.049   2.224   8.852
21071W        W63082  17.279  12.844  11.262
21072W        W63083   5.179  14.234   0.428
21073W        W63084  16.499   3.104   9.532
21074W        W63085   0.219  16.174   4.122
21075W        W63086  20.829   1.644  11.152
21076W        W63087  23.149   5.204   1.308
21077W        W63088   5.349   1.444  15.662
21078W        W63089  10.839  14.424   3.192
21079W        W63090  12.769  22.711  10.772
21080W        W63091  11.729  24.931   0.208
21081W        W63092  11.619   7.484  15.312
21082W        W63093  15.959   7.154   3.692
21083W        W63094  22.289  21.134   2.248
21084W        W63095  22.779  17.424   0.708
21085W        W63096  17.699  12.974   3.722
21086W        W63097  24.729  14.164  10.822
21087W        W63098  23.279   1.524  10.422
21088W        W63099   8.599   5.534   7.362
21089W        W63100  15.689   9.114   0.048
21090W        W63101   3.029  14.384   1.638
21091W        W63102   4.979  11.764   9.682
21092W        W63103  18.549  23.981  11.852
21093W        W63104  11.799  14.484   0.438
21094W        W63105   2.829  15.184  11.572
21095W        W63106  24.429   5.794  15.102
21096W        W63107   7.049   0.914   1.288
21097W        W63108   0.099   7.034   0.868
21098W        W63109  18.249  10.064  15.282
21099W        W63110  22.719  24.721   3.622
21100W        W63111  10.329   1.554   2.602
21101W        W63112   6.959  18.854   0.988
21102W        W63113  14.469  16.264   8.992
21103W        W63114  14.569  19.014   9.192
21104W        W63115  17.309   7.644   0.228
21105W        W63116   4.749   3.084   1.748
21106W        W63117  24.459  23.521  11.272
21107W        W63118   5.829  10.084   2.058
21108W        W63119  24.589  16.594   8.882
21109W        W63120  13.179  14.114   5.732
21110W        W63121   6.389   9.404   2.842
21111W        W63122  14.269  12.724   1.618
21112W        W63123   7.169   0.454   0.378
21113W        W63124   0.729  20.384   8.862
21114W        W63125  22.339  15.284   1.278
21115W        W63126   0.389   4.914   0.268
21116W        W63127  13.889  24.311   3.922
21117W        W63128  11.469  14.814  10.742
21118W        W63129  24.379   7.044  11.762
21119W        W63130  24.679  22.281   3.102
21120W        W63131   1.619   5.614  10.592
21121W        W63132  10.609  22.281   9.672
21122W        W63133  13.469  16.744   1.838
21123W        W63134   2.669   7.064   1.108
21124W        W63135  22.439   9.214   7.792
21125W        W63136  11.869   6.754   2.068
21126W        W63137   9.509   1.084   0.078
21127W        W63138  15.579   7.624   9.232
21128W        W63139  12.999  19.214   7.942
21129W        W63140  23.689   0.914   0.538
21130W        W63141  22.089  19.604   1.398
21131W        W63142  19.539   8.224   8.232
21132W        W63143  13.699   1.344   1.658
21133W        W63144  11.179  20.224   1.938
21134W        W63145   0.509  10.904  11.972
21135W        W63146   3.079   3.544   7.592
21136W        W63147  23.659  25.421   8.602
21137W        W63148   3.589  12.864  11.252
21138W        W63149  14.599   4.154   2.388
21139W        W63150  19.019  11.324   2.038
21140W        W63151  12.369  20.784   3.942
21141W        W63152   2.309  15.384   8.942
21142W        W63153  24.029  23.271   7.512
21143W        W63154  19.749  24.201   8.892
21144W        W63155  20.239  23.651  11.122
21145W        W63156  18.749  12.044   4.232
21146W        W63157  21.569   9.724   2.188
21147W        W63158  20.579   1.714   1.308
21148W        W63159   4.529  18.974   9.942
21149W        W63160  20.169   3.944   7.822
21150W        W63161   3.869  15.924  15.182
21151W        W63162  16.919  10.114   8.092
21152W        W63163  17.099  15.504   2.692
21153W        W63164  25.509  24.381   3.092
21154W        W63165  25.379  20.024  10.902
21155W        W63166  11.699   9.694   3.672
21156W        W63167  13.659  11.304  10.732
21157W        W63168  16.689   6.014   3.442
21158W        W63169   1.339  15.524   9.182
21159W        W63170   1.339  12.004   2.488
21160W        W63171  22.669  18.924   0.788
21161W        W63172   1.909  13.614   2.498
21162W        W63173  14.069   1.404   3.632
21163W        W63174   7.759  21.164   9.492
21164W        W63175  18.579   2.714  10.632
21165W        W63176   5.199  21.124   1.488
21166W        W63177  15.919  25.341   2.418
21167W        W63178   9.669  15.324  15.502
21168W        W63179  22.419  23.321   3.542
21169W        W63180   1.349  17.494   2.128
21170W        W63181  18.689  23.701  10.992
21171W        W63182  21.819   2.284  10.382
21172W        W63183  17.319   1.954   9.252
21173W        W63184  17.629   7.974   8.752
21174W        W63185  10.409   1.574   8.502
21175W        W63186   7.919   4.444   9.642
21176W        W63187  17.749  10.704   9.942
21177W        W63188   4.639  24.561  14.832
21178W        W63189  23.649  23.231   3.192
21179W        W63190   7.409  20.314  11.692
21180W        W63191   4.629   5.344  15.422
21181W        W63192  20.979  14.364   9.432
21182W        W63193  12.539   9.084  15.092
21183W        W63194  21.529  19.854   8.732
21184W        W63195  21.519  15.594   8.432
21185W        W63196   1.519   3.834  10.102
21186W        W63197   7.269  12.874   0.208
21187W        W63198   1.929   1.904   0.978
21188W        W63199   9.609  18.724   1.848
21189W        W63200   7.529   5.884  10.552
21190W        W63201  13.649  14.874   9.592
21191W        W63202   7.059  19.614  10.912
21192W        W63203   5.529  20.214  11.462
21193W        W63204  21.299  15.884   3.482
21194W        W63205  11.679  18.204   1.218
21195W        W63206  12.639  14.194   1.058
21196W        W63207  15.529   2.114   1.898
21197W        W63208  10.179  23.931   0.848
21198W        W63209   6.339   0.894   9.042
21199W        W63210   7.719   8.254  10.112
21200W        W63211  13.779   8.684   0.668
21201W        W63212  17.319  13.774   9.542
21202W        W63213  15.419   0.414   2.028
21203W        W63214  16.459   8.264   4.652
21204W        W63215   4.159  12.114   2.622
21205W        W63216  22.519  19.504   8.622
21206W        W63217   5.659  24.681   2.842
21207W        W63218  20.219  11.704   9.822
21208W        W63219  19.799  10.764   2.672
21209W        W63220  21.239   1.324   0.458
21210W        W63221  23.029  12.244  11.542
21211W        W63222  12.199  10.094   9.492
21212W        W63223   4.939   9.714  10.892
21213W        W63224   0.069   0.544   8.262
21214W        W63225  20.439  15.184   8.392
21215W        W63226   6.599  19.394   3.262
21216W        W63227   3.979   0.214  11.132
21217W        W63228  22.559   2.834   3.112
21218W        W63229   3.749   3.314   8.812
21219W        W63230   7.429  17.044   0.258
21220W        W63231   7.059  16.934   8.732
21221W        W63232  15.909  19.944   2.972
21222W        W63233  14.889   7.724   2.842
21223W        W63234  14.409  20.304   3.942
21224W        W63235  14.139   0.474   1.448
21225W        W63236  18.099   9.254   1.598
21226W        W63237  12.539  24.391   3.632
21227W        W63238   0.339  13.574  11.042
21228W        W63239  23.849  19.144   0.578
21229W        W63240  17.139  22.331   8.752
21230W        W63241   4.959   0.854   1.708
21231W        W63242  14.869   2.304  10.502
21232W        W63243  22.969  18.094  10.812
21233W        W63244   1.729   0.854   8.612
21234W        W63245   5.349   8.364   0.238
21235W        W63246   0.309  12.184   3.312
21236W        W63247   5.859   8.534   0.348
21237W        W63248   4.109  20.524  11.622
21238W        W63249  17.139  16.414  15.752
21239W        W63250  23.289  16.914  10.262
21240W        W63251   2.669   7.024   8.322
21241W        W63252  22.459  21.721   9.402
21242W        W63253   5.289  10.554   8.932
21243W        W63254   9.879   0.384   9.402
21244W        W63255  21.979   5.814  11.182
21245W        W63256  15.779  19.524   3.262
21246W        W63257   8.949  15.394   3.472
21247W        W63258   4.489  14.514   1.208
21248W        W63259   6.349  23.581   1.098
21249W        W63260  16.379  25.431   3.702
21250W        W63261  13.519   5.874   3.782
21251W        W63262  19.749  20.724  15.582
21252W        W63263  24.529  12.364  15.172
21253W        W63264   2.099  24.071  15.642
21254W        W63265  13.849  24.171   8.612
21255W        W63266   1.729  18.704   3.242
21256W        W63267  10.339  20.744  15.582
21257W        W63268  15.769   4.184   0.488
21258W        W63269  21.689  20.064   2.662
21259W        W63270  15.619  25.351   8.742
21260W        W63271  20.169  12.344   2.982
21261W        W63272   9.189  12.574   3.842
21262W        W63273   7.529  10.294   9.482
21263W        W63274  24.879  15.484   2.448
21264W        W63275  24.339  23.241   3.442
21265W        W63276  21.099  15.294   2.892
21266W        W63277   0.749   8.464  11.002
21267W        W63278   3.689  20.514   9.852
21268W        W63279  12.289  17.494   8.572
21269W        W63280  15.219  12.434   9.912
21270W        W63281   2.139  24.131   3.532
21271W        W63282  10.489  15.964   3.272
21272W        W63283   5.979   6.104   1.558
21273W        W63284  19.449  20.864   7.552
21274W        W63285  19.219  13.584   9.632
21275W        W63286  11.649   8.914   3.612
21276W        W63287   0.169   7.614  15.252
21277W        W63288  14.959   0.174  11.432
21278W        W63289  25.049  13.534   1.768
21279W        W63290  10.589  25.301   3.982
21280W        W63291   2.709  11.884   0.888
21281W        W63292  10.799  23.931  11.472
21282W        W63293   6.689   9.984   7.672
21283W        W63294  13.429  14.884   0.438
21284W        W63295  20.159  25.221  15.522
21285W        W63296  20.719  25.151   1.858
21286W        W63297  19.889  15.584   0.588
21287W        W63298   9.569   4.854   2.832
21288W        W63299  10.219   6.044   9.082
21289W        W63300  11.789   0.114   0.578
21290W        W63301  24.779   9.224   1.468
21291W        W63302  18.879   5.174   8.032
21292W        W63303   2.159  25.181   0.008
21293W        W63304  15.379  11.074   0.368
21294W        W63305   5.719  23.961   3.822
21295W        W63306  10.689   8.784   1.838
21296W        W63307  23.559  21.851   3.082
21297W        W63308  25.349   6.714  15.472
21298W        W63309  13.149  14.214   2.118
21299W        W63310   9.309  16.054  10.722
21300W        W63311   4.839  16.334   2.168
21301W        W63312  10.949   5.734  15.472
21302W        W63313   8.389  17.894   3.082
21303W        W63314   7.579  23.401  11.642
21304W        W63315   1.539   0.194   2.288
21305W        W63316   0.979   6.514   6.812
21306W        W63317  21.169  23.811  15.792
21307W        W63318   3.999  11.164   0.768
21308W        W63319   0.199   5.264   0.568
21309W        W63320   6.589  11.934   9.952
21310W        W63321   9.879   2.124   8.732
21311W        W63322  15.179  14.464   4.002
21312W        W63323   0.439  11.874   8.102
21313W        W63324  14.069  14.234   1.878
21314W        W63325  14.459  12.344   1.278
21315W        W63326   2.039   5.574  10.012
21316W        W63327   6.709  23.181   9.172
21317W        W63328  11.739  14.424   2.018
21318W        W63329  21.819   2.474   1.798
21319W        W63330   0.339   0.634   1.468
21320W        W63331  21.189  10.224   8.052
21321W        W63332   9.089  12.604   2.872
21322W        W63333  24.959   8.114   2.098
21323W        W63334   4.959   2.504  10.312
21324W        W63335   9.729  22.511   0.918
21325W        W63336  22.369  16.894  11.832
21326W        W63337  17.829  10.804  15.752
21327W        W63338  11.579  13.404  15.802
21328W        W63339  13.939   0.394  14.902
21329W        W63340  17.739  13.504   9.532
21330W        W63341  20.169  19.994   9.142
21331W        W63342  22.089  11.164   8.302
21332W        W63343  20.199  21.961   1.158
21333W        W63344  21.679  11.714  10.492
21334W        W63345   3.209  15.484   1.278
21335W        W63346  25.069  20.894   0.828
21336W        W63347   5.989   8.994   0.248
21337W        W63348   1.569  11.134   8.462
21338W        W63349   8.769  16.694   2.532
21339W        W63350   6.389   9.034   6.942
21340W        W63351  10.649  15.324  10.492
21341W        W63352   6.479  19.484   0.078
21342W        W63353  12.159   9.354  10.092
21343W        W63354  10.679  14.274  15.542
21344W        W63355  20.139   5.094   8.292
21345W        W63356  18.959   9.634   1.278
21346W        W63357  11.319  12.794   1.858
21347W        W63358  10.129   9.454   1.298
21348W        W63359  12.309  18.074   1.838
21349W        W63360   2.199   9.194   1.128
21350W        W63361   8.709   0.374   9.222
21351W        W63362  22.399  24.861  12.242
21352W        W63363   4.979  20.454   3.132
21353W        W63364   9.269   0.334   2.328
21354W        W63365  18.639  24.551   3.622
21355W        W63366  19.919  11.164   1.748
21356W        W63367  10.969  14.734   4.942
21357W        W63368  24.169  14.394   7.252
21358W        W63369  11.949  11.834   0.968
21359W        W63370  12.669  25.301  15.852
21360W        W63371  18.209  15.304   8.752
21361W        W63372  17.539   9.834   9.382
21362W        W63373  13.669   8.794   8.592
21363W        W63374  13.759  11.194   1.848
21364W        W63375  12.519   9.864   0.998
21365W        W63376   8.469  14.714   0.938
21366W        W63377   6.609  17.934  15.572
21367W        W63378  22.869   3.734   7.842
21368W        W63379   9.149   0.664   9.012
21369W        W63380  19.869  21.244   8.232
21370W        W63381   5.139  22.281   2.922
21371W        W63382  12.309  11.684   1.288
21372W        W63383  22.609  12.234   8.472
21373W        W63384  19.599  18.544   3.232
21374W        W63385  17.049  17.954  10.472
21375W        W63386   7.199  20.694   9.752
21376W        W63387   6.419  22.561   1.778
21377W        W63388  23.629  24.971   3.322
21378W        W63389  11.929  14.134   1.618
21379W        W63390  14.429  14.704  10.232
21380W        W63391   4.809  24.051  10.552
21381W        W63392  17.049  20.634   8.882
21382W        W63393  20.919  18.004   9.742
21383W        W63394   0.949   9.654   2.168
21384W        W63395   7.899   6.014   2.388
21385W        W63396  22.829   4.644   7.832
21386W        W63397  20.539   7.074   8.622
21387W        W63398   0.549  11.104   9.542
21388W        W63399  11.469  19.854   4.332
21389W        W63400   2.809   1.934   0.228
21390W        W63401   4.529   0.624  15.652
21391W        W63402  14.929   0.454   9.652
21392W        W63403  17.699  14.524   8.572
21393W        W63404  13.229   3.794   9.672
21394W        W63405  16.489   6.104   8.672
21395W        W63406  15.259  17.714   3.552
21396W        W63407  16.129  10.854   3.012
21397W        W63408   2.259   5.414   6.852
21398W        W63409  17.719  23.081   7.052
21399W        W63410  11.979  20.784   3.572
21400W        W63411   2.579  15.394   7.172
21401W        W63412   9.489   8.334   0.918
21402W        W63413   5.119  10.394   2.198
21403W        W63414  24.339  10.594  15.272
21404W        W63415   8.009   9.984   1.048
21405W        W63416  20.279  12.384   1.028
21406W        W63417  16.899   3.744  10.582
21407W        W63418  17.799   2.194   0.698
21408W        W63419   5.509   9.904   1.508
21409W        W63420   7.379   9.284  15.262
21410W        W63421   8.029   1.004   0.288
21411W        W63422   0.829  22.421   3.562
21412W        W63423  21.159   8.174   7.472
21413W        W63424  23.539   0.544   2.418
21414W        W63425  18.659  23.961   1.508
21415W        W63426  21.909  16.044  11.892
21416W        W63427   6.069  19.584  10.012
21417W        W63428  25.469  24.891   0.368
21418W        W63429  13.639  12.644   3.252
21419W        W63430   6.229   5.604   0.878
21420W        W63431  23.369   1.204   9.322
21421W        W63432  15.389   2.164   2.772
21422W        W63433  20.619  20.524   7.902
21423W        W63434  10.099  11.184   9.152
21424W        W63435   7.159   5.234   1.938
21425W        W63436  10.999   6.614   3.832
21426W        W63437  14.879   9.874   4.042
21427W        W63438  14.049   4.844   0.628
21428W        W63439  15.179  12.704   4.472
21429W        W63440   2.699  15.384   2.218
21430W        W63441   3.139   1.934  10.292
21431W        W63442  13.439  17.624   5.312
21432W        W63443  16.619  21.571   9.852
21433W        W63444  24.019   4.934   7.392
21434W        W63445  15.989   0.224   3.562
21435W        W63446   3.069  24.701   3.202
21436W        W63447   6.339  18.214  11.422
21437W        W63448   6.789  24.541  10.772
21438W        W63449  21.809  15.714   2.582
21439W        W63450  14.089  19.964   3.082
21440W        W63451   2.949   3.274   1.948
21441W        W63452   5.349   1.844  10.362
21442W        W63453   5.619  22.201   3.062
21443W        W63454   5.219  10.744   1.888
21444W        W63455  15.839   6.724  15.842
21445W        W63456   4.399  12.384   9.502
21446W        W63457  13.039  19.964  11.322
21447W        W63458   3.179  23.901   8.592
21448W        W63459   0.001  16.714  11.522
21449W        W63460  10.879   6.134   3.692
21450W        W63461  20.149  15.714  11.002
21451W        W63462  11.399  11.344   0.238
21452W        W63463  14.009   9.084   9.432
21453W        W63464  18.409  10.554   0.468
21454W        W63465   2.069  15.694  10.342
21455W        W63466  13.639  13.734   1.798
21456W        W63467   7.139  22.331   0.668
21457W        W63468  25.149  23.651   1.418
21458W        W63469  14.559   0.654   1.648
21459W        W63470   4.739  17.064   8.542
21460W        W63471   5.379  21.114   9.902
21461W        W63472  15.049  17.204  10.052
21462W        W63473   5.019  18.824   2.398
21463W        W63474  19.129  21.891   4.072
21464W        W63475   5.349   3.164   9.592
21465W        W63476  11.989  22.221  15.282
21466W        W63477   7.899  19.544   9.292
21467W        W63478   4.549   6.714   9.412
21468W        W63479   1.759   2.254  10.172
21469W        W63480  13.799  24.931   2.488
21470W        W63481  24.539  14.084   1.268
21471W        W63482  10.799  24.001   0.368
21472W        W63483   1.959  18.874   0.738
21473W        W63484  16.759  20.154   2.812
21474W        W63485  18.379   8.174   8.492
21475W        W63486  16.139   6.674   0.998
21476W        W63487  13.659   3.924   2.912
21477W        W63488   4.999  19.214   8.772
21478W        W63489  25.009   7.604   2.732
21479W        W63490  18.459   7.924  10.542
21480W        W63491  18.129  11.334   8.652
21481W        W63492   3.219   6.644   8.352
21482W        W63493   7.429  17.764   3.212
21483W        W63494   8.319  24.471   8.992
21484W        W63495  20.499   1.394  11.482
21485W        W63496  17.329  11.004   3.542
21486W        W63497   7.529  22.191  10.122
21487W        W63498  22.839  24.681   8.412
21488W        W63499  11.819   0.054   8.922
21489W        W63500  25.439  10.294   2.118
21490W        W63501  21.069   1.304  12.212
21491W        W63502   6.479   3.554  15.532
21492W        W63503   0.539  21.024   2.552
21493W        W63504   2.659  22.011  10.282
21494W        W63505  21.639   7.204  10.522
21495W        W63506  18.489   5.634   3.342
21496W        W63507   2.689  11.774   2.248
21497W        W63508   2.429  15.634   1.398
21498W        W63509  22.939  18.954  11.432
21499W        W63510  13.849   6.704   1.828
21500W        W63511   5.749  23.001   1.678
21501W        W63512  10.119   8.924   8.592
21502W        W63513  13.889  18.984  10.382
21503W        W63514  17.299  10.704   9.152
21504W        W63515  13.839  23.361   8.692
21505W        W63516  14.179  22.411   1.348
21506W        W63517  14.819  13.474   1.498
21507W        W63518   3.909   5.944  11.952
21508W        W63519  20.349  13.384   7.682
21509W        W63520   5.639  15.014  10.732
21510W        W63521  18.119  16.874   3.022
21511W        W63522   7.249   6.514  10.572
21512W        W63523  13.129  19.574   3.092
21513W        W63524   8.209  15.434   8.062
21514W        W63525   9.629   4.974   8.242
21515W        W63526  19.599  16.294  10.762
21516W        W63527   1.089  10.404   2.572
21517W        W63528  10.679  11.584   4.082
21518W        W63529  16.859   4.894   0.298
21519W        W63530  19.379   9.354   0.518
21520W        W63531  21.579   1.864   9.082
21521W        W63532  15.709  15.554   9.522
21522W        W63533  10.879  19.174   4.532
21523W        W63534  18.439  11.114   2.862
21524W        W63535  17.759   6.024   8.932
21525W        W63536  14.229   8.624   9.402
21526W        W63537  18.669   3.524   8.682
21527W        W63538  10.779  11.594  13.972
21528W        W63539  23.509  11.364   4.052
21529W        W63540  15.799   7.724  15.052
21530W        W63541  20.289  17.044  12.102
21531W        W63542   5.049  10.054   2.532
21532W        W63543   5.949   3.464   9.362
21533W        W63544  21.959   8.064   8.602
21534W        W63545   0.719  11.944   1.728
21535W        W63546   4.889  14.424   8.642
21536W        W63547   3.569   1.074   1.528
21537W        W63548  11.659   0.854  10.962
21538W        W63549   6.799   6.424   3.242
21539W        W63550   0.979   7.474   0.638
21540W        W63551   6.039   8.174   8.312
21541W        W63552  18.899   7.804   2.942
21542W        W63553   3.149  24.981  15.602
21543W        W63554  13.619   5.104   2.208
21544W        W63555  24.269   7.614   0.848
21545W        W63556  21.219  12.884   2.038
21546W        W63557  11.129  25.121  11.742
21547W        W63558   8.339  16.354  10.292
21548W        W63559   7.609   6.584   0.338
21549W        W63560  15.059  23.941  11.042
21550W        W63561  16.389  24.941   2.912
21551W        W63562  13.529  24.531  10.742
21552W        W63563  21.389   0.244   3.122
21553W        W63564  23.839   6.604   0.768
21554W        W63565   5.949  16.274  10.472
21555W        W63566  13.569   2.124   9.152
21556W        W63567  11.789  11.194   1.878
21557W        W63568  25.269  14.104   3.012
21558W        W63569   1.259  18.284   1.238
21559W        W63570   0.769   4.114   1.768
21560W        W63571  24.949  19.754  11.012
21561W        W63572  14.979  18.444   1.068
21562W        W63573   0.569   5.364   0.958
21563W        W63574  11.279   7.454   9.462
21564W        W63575  13.959   6.354   0.908
21565W        W63576  19.909  12.534   0.378
21566W        W63577  15.089  10.694   0.538
21567W        W63578   0.139  24.141   2.198
21568W        W63579  22.519  22.921   9.742
21569W        W63580   0.041   3.914   2.932
21570W        W63581   0.059   2.454   6.892
21571W        W63582  10.019  17.664   0.928
21572W        W63583  23.509  14.624   2.702
21573W        W63584   5.119  12.514   1.308
21574W        W63585   6.049   7.844  10.242
21575W        W63586  21.269  23.901   1.878
21576W        W63587  22.719  14.034  10.532
21577W        W63588  22.159  24.721   9.112
21578W        W63589  14.489   2.824   1.368
21579W        W63590   8.009  12.604   0.628
21580W        W63591   0.119  15.374   0.588
21581W        W63592  17.679  14.684   3.142
21582W        W63593  10.889  20.164   0.328
21583W        W63594   3.299   6.424  14.962
21584W        W63595   5.499   4.374   1.538
21585W        W63596  16.229  12.234   0.998
21586W        W63597  14.149   6.084   2.448
21587W        W63598  14.229  24.861  10.212
21588W        W63599   3.889  18.244   9.692
21589W        W63600  16.889  24.881  11.722
21590W        W63601   3.519  17.334   9.732
21591W        W63602  17.979  14.184   3.462
21592W        W63603  25.279  19.764   7.712
21593W        W63604  15.309   9.444   3.502
21594W        W63605   0.339  18.814   0.638
21595W        W63606   7.939   7.954  10.412
21596W        W63607   0.939  22.981   2.438
21597W        W63608  23.279   1.104   4.222
21598W        W63609   9.559  23.191   7.832
21599W        W63610   6.659  18.174  15.062
21600W        W63611  16.919   7.884   0.968
21601W        W63612  22.039   5.174   8.982
21602W        W63613   3.069  11.064  15.472
21603W        W63614  20.069  23.411   9.012
21604W        W63615   1.889   4.994   9.772
21605W        W63616   2.149  16.864   1.998
21606W        W63617  13.959   3.574  15.232
21607W        W63618   1.389   4.184  11.112
21608W        W63619  17.159  20.814   1.248
21609W        W63620   4.709   9.764   1.028
21610W        W63621  22.809  21.751  10.912
21611W        W63622   8.859   0.624  15.452
21612W        W63623  19.599  14.414   9.192
21613W        W63624  22.849   7.514   1.628
21614W        W63625  14.959   3.704   1.518
21615W        W63626  18.699  15.584   8.152
21616W        W63627  20.299   5.004   9.552
21617W        W63628  19.349  24.421   8.142
21618W        W63629   4.979   3.164   7.332
21619W        W63630  24.669  13.894   8.582
21620W        W63631  25.379  16.624   1.358
21621W        W63632  23.849   0.334   2.802
21622W        W63633   5.619   2.274   2.962
21623W        W63634  20.099  16.804   2.942
21624W        W63635   1.909   0.214  15.782
21625W        W63636   9.289  23.461   0.198
21626W        W63637  14.779  20.924   9.272
21627W        W63638   4.929  22.981   0.868
21628W        W63639  24.719  19.414   8.342
21629W        W63640  15.469  12.704   4.092
21630W        W63641  13.639  22.381  11.732
21631W        W63642  24.949  17.264   7.872
21632W        W63643  11.149  18.064   5.152
21633W        W63644  10.749  24.891   9.182
21634W        W63645  18.479  24.131   2.822
21635W        W63646  14.279  12.244   4.142
21636W        W63647  15.229   6.334   7.952
21637W        W63648  16.169  13.134  15.322
21638W        W63649  18.789  23.871  10.272
21639W        W63650  13.009   0.544   0.408
21640W        W63651  19.839  15.144   0.268
21641W        W63652  10.269  25.081   2.922
21642W        W63653   5.329   9.044   3.602
21643W        W63654  15.389  16.074   9.842
21644W        W63655  17.979  21.174   1.348
21645W        W63656   0.769  24.931   7.562
21646W        W63657   3.509  10.344  10.042
21647W        W63658  20.309   6.554   8.002
21648W        W63659   4.549  12.684   7.492
21649W        W63660   9.769  20.584   2.338
21650W        W63661  15.079  22.141   4.162
21651W        W63662  14.089   5.694  15.662
21652W        W63663  24.149  25.361  10.882
21653W        W63664  15.159  22.271   1.818
21654W        W63665  12.279   6.004   3.582
21655W        W63666   6.099  22.421   9.472
21656W        W63667   7.199  23.001   1.338
21657W        W63668  16.389   6.484   1.908
21658W        W63669   7.699  14.334   9.272
21659W        W63670   3.309  17.414   0.318
21660W        W63671  25.419  18.804   9.822
21661W        W63672  16.559   4.904   2.058
21662W        W63673  19.949  10.564  15.572
21663W        W63674   1.419   9.374   7.972
21664W        W63675  14.579   2.904   2.478
21665W        W63676  19.859  17.144   8.662
21666W        W63677   3.939   2.274   7.542
21667W        W63678   8.769  25.041  11.132
21668W        W63679   2.559  18.884  10.262
21669W        W63680   1.249   0.654   3.332
21670W        W63681  17.159   6.784  15.842
21671W        W63682  23.969  11.614   7.462
21672W        W63683  17.029  18.474  10.522
21673W        W63684  18.849  14.144   8.352
21674W        W63685  20.709  16.934   3.722
21675W        W63686   8.189  22.851   3.882
21676W        W63687   4.539   4.874  10.882
21677W        W63688  24.049  24.401   8.612
21678W        W63689   2.389  12.004   1.238
21679W        W63690   6.279   2.374   2.118
21680W        W63691   7.409  16.524   8.752
21681W        W63692  12.799  24.261   1.718
21682W        W63693  18.479  15.284   1.138
21683W        W63694   8.489   3.824   2.208
21684W        W63695  25.179   2.984  10.712
21685W        W63696  18.549  25.261   2.388
21686W        W63697   8.059   7.374   0.088
21687W        W63698   4.159  15.734  11.702
21688W        W63699   0.669  14.164   1.148
21689W        W63700  25.549  18.074   7.792
21690W        W63701   2.919  19.934   1.548
21691W        W63702  13.409   0.974   8.942
21692W        W63703  24.379  16.724   8.402
21693W        W63704   5.379  25.151  15.162
21694W        W63705  11.609  10.164   3.462
21695W        W63706  17.769   0.604   9.802
21696W        W63707   2.159  18.924   8.062
21697W        W63708  17.159   0.064   7.382
21698W        W63709   7.999   8.744  10.972
21699W        W63710  21.589   2.394   9.032
21700W        W63711   4.069   9.044   9.152
21701W        W63712  25.429  11.904  11.032
21702W        W63713   3.189  21.234   0.468
21703W        W63714   6.689   7.174   8.372
21704W        W63715  19.699  19.474   2.812
21705W        W63716  16.919   9.924   8.572
21706W        W63717  23.589   2.614   9.322
21707W        W63718   7.599  11.074  10.152
21708W        W63719   5.899   3.114   0.238
21709W        W63720  23.189   4.254  11.212
21710W        W63721   0.989  14.064  10.842
21711W        W63722   9.349  14.924   3.932
21712W        W63723   6.649  22.741  11.552
21713W        W63724   9.869   4.644   8.802
21714W        W63725   1.449  13.744  10.072
21715W        W63726  12.179  12.454   1.678
21716W        W63727  17.519  23.441   8.412
21717W        W63728   0.519   3.834   9.002
21718W        W63729  23.659  16.664   2.862
21719W        W63730  22.429  14.744  11.082
21720W        W63731   6.869  18.214   1.058
21721W        W63732   2.809  15.264  15.772
21722W        W63733   1.559   3.234   8.472
21723W        W63734  10.609   8.444   2.872
21724W        W63735  20.529   4.814  10.142
21725W        W63736  13.069   8.864   9.212
21726W        W63737  13.819  22.321  10.382
21727W        W63738  21.119   5.164   2.552
21728W        W63739  10.779  19.374   2.348
21729W        W63740  19.999   7.334   1.358
21730W        W63741  18.179  17.924  10.242
21731W        W63742   9.139   7.494  15.112
21732W        W63743  23.269   3.764  11.322
21733W        W63744   4.929  23.381   9.442
21734W        W63745  18.089  18.774   7.582
21735W        W63746  22.449   8.474   1.178
21736W        W63747   6.629  17.764   0.928
21737W        W63748   5.749  19.234   0.708
21738W        W63749  17.769  20.004   2.632
21739W        W63750   5.159  24.531   2.428
21740W        W63751  14.609   6.984   9.122
21741W        W63752  11.999  20.824  10.312
21742W        W63753  16.899   0.964  11.152
21743W        W63754   6.559   2.204   0.928
21744W        W63755  18.119  11.834   1.358
21745W        W63756  16.479  19.254   2.318
21746W        W63757  24.799  19.324  12.132
21747W        W63758  22.909  23.941   2.048
21748W        W63759  20.119  14.184   0.508
21749W        W63760  14.079   9.024   1.708
21750W        W63761   3.959  18.684   8.102
21751W        W63762  15.589   9.054   2.388
21752W        W63763  23.569  11.944   7.162
21753W        W63764  23.839   7.414   1.098
21754W        W63765   5.719  16.064   1.768
21755W        W63766  22.939   3.664   8.812
21756W        W63767  25.489   1.574  10.572
21757W        W63768  12.069  13.564  15.812
21758W        W63769  18.289   6.624   1.388
21759W        W63770   0.169  21.621  10.712
21760W        W63771  24.539  18.574   1.118
21761W        W63772  11.479  13.184   3.742
21762W        W63773   9.489  18.164   9.682
21763W        W63774   6.499   8.924   7.842
21764W        W63775  17.679   1.294   0.398
21765W        W63776  21.439   6.364   0.058
21766W        W63777   7.399   4.614   8.292
21767W        W63778   9.639   2.914   0.588
21768W        W63779   0.099  24.771  11.732
21769W        W63780  10.449   2.214   0.298
21770W        W63781  10.479  22.291   1.998
21771W        W63782   6.479  24.491   0.548
21772W        W63783  14.749  21.194   0.928
21773W        W63784   1.509   2.824  15.732
21774W        W63785   3.029  21.314   3.702
21775W        W63786   6.129   6.954   7.722
21776W        W63787   0.979   4.374  10.742
21777W        W63788   9.019  21.721  15.842
21778W        W63789   0.959   6.794   2.238
21779W        W63790  17.199  10.914   2.562
21780W        W63791   1.809  13.884   3.902
21781W        W63792   7.929  13.904  15.582
21782W        W63793   0.909   3.264   2.592
21783W        W63794  11.469  23.361   1.728
21784W        W63795  22.279  23.801   2.772
21785W        W63796  21.079  11.884   9.372
21786W        W63797  21.649  22.421  12.442
21787W        W63798   5.029   3.884  15.312
21788W        W63799   6.059   5.624   9.212
21789W        W63800   2.819   5.024   0.058
21790W        W63801  12.009  21.631   1.698
21791W        W63802   8.709  25.301  15.732
21792W        W63803   0.859   1.384   9.632
21793W        W63804   3.949  12.184   8.092
21794W        W63805   8.589   6.744   2.368
21795W        W63806  25.089   1.964   1.658
21796W        W63807  11.619  18.594   9.012
21797W        W63808   9.109  12.184  10.062
21798W        W63809   2.469   3.344   9.522
21799W        W63810   6.799  10.424   1.418
21800W        W63811   0.579  22.041   3.432
21801W        W63812   5.509  13.774   8.372
21802W        W63813   9.889  12.844   9.122
21803W        W63814   7.899  24.721  10.372
21804W        W63815   1.819  12.104   3.322
21805W        W63816  19.549  18.924   0.768
21806W        W63817   7.439  12.484   8.852
21807W        W63818  24.519   7.684   7.822
21808W        W63819  21.959  10.834   2.582
21809W        W63820   1.999   5.964   1.258
21810W        W63821  23.119  18.444   9.952
21811W        W63822   8.469   4.874   8.982
21812W        W63823   7.109   3.304   0.838
21813W        W63824   1.399   9.904  10.592
21814W        W63825  20.859  15.974   2.458
21815W        W63826  23.379  22.481   9.772
21816W        W63827   2.589   6.544   9.662
21817W        W63828  18.629  23.011   8.382
21818W        W63829  24.919   8.014  10.202
21819W        W63830   8.219   4.004  15.092
21820W        W63831   0.809  23.861   0.148
21821W        W63832   8.349   1.114  10.472
21822W        W63833  25.259   3.984   2.592
21823W        W63834  23.339  23.141   2.742
21824W        W63835   1.849   1.964   8.832
21825W        W63836  10.219  19.374  11.262
21826W        W63837   6.239  20.164   9.372
21827W        W63838  19.529   5.334   1.748
21828W        W63839  11.089  11.664   1.008
21829W        W63840  14.509  10.504   1.598
21830W        W63841  23.719  12.064   1.578
21831W        W63842  22.569   6.234   8.122
21832W        W63843   1.239  15.284  12.362
21833W        W63844  10.359   6.824   3.232
21834W        W63845   3.589   3.084   6.842
21835W        W63846  10.219  12.344   3.392
21836W        W63847   8.399  22.281   2.622
21837W        W63848  23.689   9.264   2.068
21838W        W63849  13.329   6.364  14.962
21839W        W63850  11.419  16.864  15.712
21840W        W63851   6.339   0.744   1.278
21841W        W63852   1.809  22.591   9.792
21842W        W63853   8.489   9.244   1.528
21843W        W63854  15.979  19.904  10.702
21844W        W63855  22.859  13.044   8.392
21845W        W63856  24.369  15.394   2.058
21846W        W63857  15.779  17.594  10.652
21847W        W63858  13.399  21.561  11.912
21848W        W63859   9.869   5.964   2.338
21849W        W63860  15.679  16.774  11.132
21850W        W63861  18.109   6.934   9.512
21851W        W63862  12.549  12.964   3.452
21852W        W63863  10.609   9.704   4.042
21853W        W63864   2.009   9.094   7.942
21854W        W63865  11.389   6.354   3.002
21855W        W63866   0.299  13.104   1.478
21856W        W63867  17.729   0.764  10.322
21857W        W63868  18.509  19.704   3.282
21858W        W63869  19.929  20.704  10.012
21859W        W63870  15.189  23.081  10.952
21860W        W63871  25.589  13.914  11.062
21861W        W63872   4.939   9.784   0.088
21862W        W63873  14.279  21.134   8.072
21863W        W63874  22.079  24.471   1.678
21864W        W63875   9.929  18.794   0.978
21865W        W63876  24.979  25.551   0.028
21866W        W63877  13.299  22.191  11.282
21867W        W63878  12.369   6.794   1.808
21868W        W63879  17.039  18.814  11.282
21869W        W63880  16.619  21.034   0.138
21870W        W63881   9.189  15.694  15.852
21871W        W63882   2.779  22.371  11.352
21872W        W63883  20.879   6.404   0.858
21873W        W63884   9.049  12.424  14.742
21874W        W63885  17.469  22.841   7.432
21875W        W63886  18.149  18.364   2.428
21876W        W63887   8.319  14.094   0.088
21877W        W63888   4.449  17.134   3.212
21878W        W63889  19.179   9.464   2.622
21879W        W63890  16.519   0.054   0.558
21880W        W63891  23.199  16.694   9.262
21881W        W63892   7.429  16.964  10.282
21882W        W63893  13.459  21.881   9.762
21883W        W63894   8.779  18.304   2.228
21884W        W63895  11.409  16.684  14.832
21885W        W63896   9.079  23.361   1.568
21886W        W63897  18.009  13.744   2.722
21887W        W63898   3.219   0.504   2.732
21888W        W63899  24.689   8.434  15.292
21889W        W63900  17.959   4.154  11.662
21890W        W63901  22.339   2.574   9.322
21891W        W63902   7.709  23.981  10.372
21892W        W63903  22.529  15.674   9.362
21893W        W63904  19.089  24.091   8.392
21894W        W63905  17.259  17.434   1.838
21895W        W63906   9.039  22.591   0.368
21896W        W63907  19.139  18.114   2.068
21897W        W63908   0.079   6.094   0.518
21898W        W63909   2.399  10.184   8.262
21899W        W63910  10.759  20.444   9.562
21900W        W63911  24.639   3.594   1.138
21901W        W63912  24.919  18.294  11.582
21902W        W63913  21.989  14.584   3.072
21903W        W63914  20.409  12.774  10.802
21904W        W63915   6.689   3.924   1.238
21905W        W63916   8.139  24.581   1.378
21906W        W63917  11.249  17.414   2.208
21907W        W63918  14.349  20.374   9.322
21908W        W63919  11.619   1.524   3.972
21909W        W63920  23.729  10.804   1.678
21910W        W63921   6.149  17.774   2.198
21911W        W63922  25.589   6.474   2.338
21912W        W63923  18.329  21.184  11.242
21913W        W63924  22.659  19.014   8.732
21914W        W63925   8.089  20.804   1.018
21915W        W63926  14.989  13.584   4.412
21916W        W63927  21.489   2.564  10.952
21917W        W63928   5.109   1.094   7.372
21918W        W63929  16.969  19.634   9.732
21919W        W63930   9.279  10.914   0.398
21920W        W63931   2.709   3.674  15.872
21921W        W63932   8.399   8.924   8.762
21922W        W63933   1.749   5.634   1.668
21923W        W63934   8.379  18.734   9.472
21924W        W63935   1.289   0.704  12.362
21925W        W63936  24.189  16.174   4.402
21926W        W63937   9.129  16.534  10.602
21927W        W63938   4.789  12.084  11.132
21928W        W63939  17.539  17.304   7.932
21929W        W63940   4.099  19.234   3.102
21930W        W63941   5.009   7.564   7.282
21931W        W63942   5.929   8.004   3.432
21932W        W63943  11.229   7.904  10.002
21933W        W63944  16.559   8.374   4.122
21934W        W63945  22.619  17.674   2.478
21935W        W63946   3.039  20.174   2.268
21936W        W63947  24.789  10.144   8.602
21937W        W63948   2.909  16.194  10.482
21938W        W63949  14.069  11.734   5.192
21939W        W63950   5.679  11.094  11.362
21940W        W63951  12.489  10.624   8.582
21941W        W63952   7.549   7.304   8.252
21942W        W63953  20.279   7.864  11.152
21943W        W63954  17.849  11.404  10.622
21944W        W63955   4.469  23.131  11.962
21945W        W63956  15.739  22.921   3.512
21946W        W63957   6.469   2.504  14.742
21947W        W63958  13.639  20.524  15.082
21948W        W63959   2.399  13.804  10.202
21949W        W63960   7.749  20.734   2.722
21950W        W63961   7.729   5.824  14.062
21951W        W63962   4.309  11.324   0.028
21952W        W63963  18.039   4.734   1.598
21953W        W63964   1.809  21.451   8.642
21954W        W63965   1.109  22.041   3.352
21955W        W63966   2.639   4.894   7.552
21956W        W63967  16.029  11.984   8.582
21957W        W63968   3.699   8.734  15.872
21958W        W63969  16.889   4.524  10.072
21959W        W63970   9.439   5.624   0.038
21960W        W63971   9.569   2.284   3.602
21961W        W63972   2.249  15.284   8.042
21962W        W63973   2.129  22.211  11.982
21963W        W63974  10.809  19.994   3.152
21964W        W63975  23.529  21.901   0.958
21965W        W63976  17.419  15.804   7.882
21966W        W63977  17.509  18.104  10.442
21967W        W63978   7.799   6.384   9.842
21968W        W63979   3.319  21.174   1.198
21969W        W63980   2.859  13.984   2.398
21970W        W63981  19.839   1.624   9.262
21971W        W63982  11.069   5.514   0.788
21972W        W63983   4.959   0.234   7.622
21973W        W63984  21.599  13.704  15.542
21974W        W63985  25.249   6.664   1.108
21975W        W63986   7.619   6.454   8.292
21976W        W63987   5.879  21.721  10.582
21977W        W63988  15.179   8.254   2.188
21978W        W63989  10.159   9.304  10.992
21979W        W63990  18.819  23.611   9.632
21980W        W63991   1.399  23.041   9.072
21981W        W63992  21.889  24.221  10.232
21982W        W63993  24.599  14.744   0.798
21983W        W63994  20.239   1.244  11.042
21984W        W63995  23.419  12.654   8.162
21985W        W63996  13.269   5.344  10.302
21986W        W63997  11.189  15.484   5.092
21987W        W63998   3.259   7.214  11.342
21988W        W63999   6.879   1.134   2.842
21989W        W64000  11.329  13.204   1.078
21990W        W64001   0.499  21.134  15.762
21991W        W64002   0.819   2.804   7.652
21992W        W64003   2.969   7.254   9.092
21993W        W64004  19.619  20.824   9.492
21994W        W64005  21.409   8.014   8.422
21995W        W64006  20.759  20.204   1.488
21996W        W64007  14.999  16.144   3.322
21997W        W64008  25.309  10.264   0.128
21998W        W64009  11.849   7.554   3.502
21999W        W64010  15.919  13.864  14.232
22000W        W64011   7.779   0.464   8.332
22001W        W64012  21.679  24.651   7.932
22002W        W64013  19.299  16.984  11.892
22003W        W64014  16.279   0.914   3.942
22004W        W64015   5.989   8.334   1.188
22005W        W64016   7.059  11.624   3.192
22006W        W64017  22.639  21.981   9.842
22007W        W64018   9.239  15.874   3.472
22008W        W64019  25.379  21.431   1.948
22009W        W64020   8.709   6.014   3.482
22010W        W64021  18.879  10.484   3.562
22011W        W64022  15.239  21.471   7.902
22012W        W64023  18.859   7.604   1.958
22013W        W64024  20.089   3.874   0.128
22014W        W64025   7.849   3.924   0.198
22015W        W64026  21.959  15.584   0.018
22016W        W64027  13.719  16.964   3.692
22017W        W64028  23.659  23.521   8.582
22018W        W64029   8.279   0.084   0.298
22019W        W64030   1.359   0.344   1.408
22020W        W64031   2.189   4.044   0.158
22021W        W64032   7.279  19.264   0.278
22022W        W64033  13.319  15.484   2.742
22023W        W64034   9.379   3.114   1.348
22024W        W64035  16.989  10.174  10.672
22025W        W64036  17.839  18.034   2.038
22026W        W64037   2.539   6.974  10.412
22027W        W64038   4.719   8.084   9.372
22028W        W64039   2.699  15.974   3.822
22029W        W64040  11.529   1.414   9.432
22030W        W64041  21.899   1.014  12.452
22031W        W64042  18.149  15.074   0.338
22032W        W64043  12.769   1.544   0.278
22033W        W64044   6.389   6.714   8.042
22034W        W64045  23.009   6.624   0.118
22035W        W64046  21.989   7.694   0.168
22036W        W64047  15.399   7.444  15.002
22037W        W64048  17.369  15.414  10.412
22038W        W64049  17.209   9.664   8.962
22039W        W64050  21.749  17.304  11.242
22040W        W64051   9.469  22.661   2.592
22041W        W64052  17.229  15.114   9.642
22042W        W64053   2.529  18.944  10.792
22043W        W64054  20.619  17.544   9.792
22044W        W64055   3.349   6.924   6.882
22045W        W64056   5.469  14.334   7.652
22046W        W64057   3.619   0.234   0.308
22047W        W64058  20.489   3.214   2.512
22048W        W64059  22.829   0.714   7.462
22049W        W64060   7.919   6.174   4.112
22050W        W64061  13.589  11.404   1.338
22051W        W64062  16.269   7.354   2.298
22052W        W64063  14.859   1.314   1.238
22053W        W64064   0.469  14.094   2.468
22054W        W64065   1.609   6.124  15.742
22055W        W64066   9.579  24.581   0.288
22056W        W64067  15.599  18.424   8.162
22057W        W64068  19.559  12.854   1.258
22058W        W64069  18.449  22.051   9.902
22059W        W64070   2.019   3.114   9.252
22060W        W64071  24.659  23.041   1.008
22061W        W64072  10.809   8.894   0.888
22062W        W64073  17.979  13.954   1.608
22063W        W64074   9.789  20.684   1.598
22064W        W64075  21.069  22.921   2.812
22065W        W64076  18.469  22.461   3.332
22066W        W64077  20.189   2.964  11.062
22067W        W64078   1.359   9.584  11.062
22068W        W64079  24.719  17.364   2.168
22069W        W64080  15.829  10.744   3.822
22070W        W64081   6.339   8.174   9.312
22071W        W64082   1.039  22.531   4.212
22072W        W64083   8.589   8.424   1.928
22073W        W64084  22.059   3.784   7.272
22074W        W64085  10.199   6.684   8.532
22075W        W64086   2.909  18.894   8.512
22076W        W64087  16.029  21.481   1.248
22077W        W64088   3.799  14.334   2.148
22078W        W64089  11.309   9.564   2.812
22079W        W64090  20.439  12.754  14.862
22080W        W64091   6.009  15.324   3.582
22081W        W64092   6.129   3.964  15.452
22082W        W64093  20.839  15.744  10.262
22083W        W64094   8.539   2.184   8.602
22084W        W64095  14.589   3.064   3.592
22085W        W64096  20.509  22.581   9.022
22086W        W64097  10.919  20.114   1.508
22087W        W64098   2.769   5.504  10.822
22088W        W64099   4.139  17.424   0.698
22089W        W64100  13.369  16.114   3.612
22090W        W64101  21.909   3.504  11.292
22091W        W64102  21.629  17.844   8.472
22092W        W64103   0.229  16.044   3.572
22093W        W64104  21.839  16.824  10.032
22094W        W64105   7.259   6.324   3.942
22095W        W64106  18.979   7.174  15.412
22096W        W64107   6.709  15.384   9.452
22097W        W64108  14.459  23.441   8.422
22098W        W64109  15.719   5.294   1.148
22099W        W64110   0.429  13.224   2.018
22100W        W64111  16.839  22.621  10.662
22101W        W64112   5.649  19.434  15.212
22102W        W64113  14.499  14.354   4.152
22103W        W64114  13.549  23.631   2.532
22104W        W64115  19.859  10.564   1.848
22105W        W64116  20.039  19.604   0.508
22106W        W64117  23.559  18.544   0.148
22107W        W64118   2.359  19.034   8.492
22108W        W64119  13.079   6.464  15.872
22109W        W64120  10.249  18.374   0.108
22110W        W64121   5.509  22.511   9.642
22111W        W64122  23.359  24.841   1.868
22112W        W64123  18.849  14.244   0.058
22113W        W64124   2.329   8.394   3.032
22114W        W64125  23.609  21.641  10.992
22115W        W64126   4.269  16.594   2.168
22116W        W64127   6.449  24.511  15.822
22117W        W64128  13.379  11.244   2.218
22118W        W64129  23.509   9.844   8.722
22119W        W64130  10.289  10.664   9.282
22120W        W64131  20.949  15.724   3.172
22121W        W64132   9.969  11.354  15.732
22122W        W64133   8.889   7.984   1.908
22123W        W64134  13.489  21.144   3.642
22124W        W64135   9.449  13.014  10.412
22125W        W64136  25.429  18.394  10.282
22126W        W64137  13.029   0.684   3.052
22127W        W64138  21.469   5.604   3.512
22128W        W64139   4.979  13.934   8.602
22129W        W64140  15.589  15.894   1.088
22130W        W64141   6.179  23.221  11.112
22131W        W64142   6.519  12.524   0.478
22132W        W64143   3.439  19.784  10.262
22133W        W64144  13.819  13.414   3.782
22134W        W64145  15.589  21.164   1.338
22135W        W64146  23.339  13.104  15.842
22136W        W64147   0.629  24.731   1.358
22137W        W64148   4.049  10.964   7.482
22138W        W64149  22.949  20.904   1.478
22139W        W64150   6.729   8.154   2.572
22140W        W64151  22.079  22.591   9.162
22141W        W64152  19.809  18.524   1.458
22142W        W64153  25.079  20.804   0.348
22143W        W64154   8.999  19.504   0.818
22144W        W64155   4.519  14.604   7.892
22145W        W64156   4.829  13.714   2.088
22146W        W64157   0.309  24.661  12.542
22147W        W64158   5.819  21.881   0.188
22148W        W64159  13.119  13.024   0.638
22149W        W64160  16.589  12.594   9.782
22150W        W64161  10.579  22.901   1.288
22151W        W64162  24.009   4.124  15.432
22152W        W64163  12.209  22.681  11.322
22153W        W64164   1.609  11.104   0.738
22154W        W64165  23.809   5.684   2.008
22155W        W64166   4.169  24.921  11.442
22156W        W64167   5.709   7.374   9.652
22157W        W64168   3.889  23.731   3.542
22158W        W64169   7.259   8.394   1.288
22159W        W64170  12.519   6.954   9.742
22160W        W64171  20.749  15.154  11.592
22161W        W64172   2.749   0.764  10.722
22162W        W64173  10.909   7.164   9.022
22163W        W64174  15.439   5.994   2.832
22164W        W64175   9.499   3.234   8.792
22165W        W64176   2.729   9.234   1.088
22166W        W64177  12.999   7.984   0.848
22167W        W64178  22.359  18.474   8.242
22168W        W64179  14.999   9.724   3.202
22169W        W64180   7.729  10.484   0.408
22170W        W64181  23.819   2.554  15.362
22171W        W64182   0.239  17.684   8.412
22172W        W64183  10.419   4.904  14.992
22173W        W64184   8.949  22.811   3.312
22174W        W64185   0.389  25.421   1.888
22175W        W64186   3.779   6.134   8.972
22176W        W64187  15.619  23.531   1.278
22177W        W64188  11.069  20.624   3.232
22178W        W64189  24.439   2.914   9.152
22179W        W64190   0.031  10.554   8.152
22180W        W64191   3.389   1.044   3.972
22181W        W64192  11.909   2.614   7.982
22182W        W64193  21.909  22.541  10.992
22183W        W64194   1.299  17.254  10.742
22184W        W64195   5.459  18.844   2.712
22185W        W64196  21.609  24.241   1.788
22186W        W64197  25.459  21.104   8.942
22187W        W64198  24.849   0.164   2.612
22188W        W64199   3.659  17.574   8.082
22189W        W64200   2.509  16.324  10.132
22190W        W64201  25.559  22.781  11.122
22191W        W64202   4.809  12.414   0.058
22192W        W64203  11.589   8.414   3.772
22193W        W64204   3.729   2.364   0.548
22194W        W64205   6.569   9.284  11.592
22195W        W64206  12.949   1.074   0.318
22196W        W64207   2.749   3.134   7.472
22197W        W64208  16.269   4.614   2.368
22198W        W64209   3.339  13.584   2.522
22199W        W64210   0.329  20.614   2.792
22200W        W64211  17.579  21.194  10.452
22201W        W64212  10.349  21.771   7.962
22202W        W64213   1.899  13.674   9.622
22203W        W64214  15.469  22.611   0.448
22204W        W64215  13.849  13.314   4.692
22205W        W64216   4.929  10.244   7.942
22206W        W64217  24.629   3.734   7.392
22207W        W64218   7.579   4.334  15.622
22208W        W64219  11.109   1.354  15.232
22209W        W64220  23.769  23.261   3.682
22210W        W64221  21.859  14.324  12.312
22211W        W64222   1.259   7.804   1.948
22212W        W64223  19.279   0.304   1.828
22213W        W64224  18.139  14.654   3.362
22214W        W64225   1.319   8.314   9.092
22215W        W64226  13.879   9.394   0.018
22216W        W64227   5.249  22.751   2.812
22217W        W64228   9.199  11.364  10.022
22218W        W64229  12.039  17.284   0.848
22219W        W64230  19.249   7.644   1.518
22220W        W64231  21.049  12.144   7.462
22221W        W64232   1.229  15.414   1.188
22222W        W64233  16.039   5.774   7.892
22223W        W64234   9.199  17.354   9.142
22224W        W64235  22.009  14.854  11.262
22225W        W64236  24.089   6.194  15.432
22226W        W64237  11.129  20.054  15.822
22227W        W64238  10.899  15.604  15.072
22228W        W64239  14.439  12.024   3.632
22229W        W64240   6.019  15.174   0.548
22230W        W64241   6.689   6.504  10.592
22231W        W64242   0.349   6.934   0.378
22232W        W64243  21.019   5.554   0.218
22233W        W64244  19.629  13.134   3.502
22234W        W64245  12.519   4.364   9.052
22235W        W64246   5.989  16.034   8.622
22236W        W64247   1.169   5.024  10.092
22237W        W64248   2.479   4.634  10.972
22238W        W64249   9.259  18.284  10.272
22239W        W64250  17.519  17.664   3.352
22240W        W64251  19.389  20.174   0.838
22241W        W64252   5.989  11.204   9.002
22242W        W64253  24.179   1.664   8.692
22243W        W64254   3.469  14.194  11.012
22244W        W64255  17.639   5.514   1.008
22245W        W64256   3.569   3.694   0.698
22246W        W64257   6.049  21.991   3.092
22247W        W64258   0.219   4.214   8.802
22248W        W64259   5.739   7.734   7.942
22249W        W64260  24.329  21.851  10.192
22250W        W64261  25.589  25.561   7.292
22251W        W64262  11.039  23.991   0.788
22252W        W64263   1.489  12.374   8.882
22253W        W64264  21.729   4.634   1.208
22254W        W64265   1.429  10.584  15.852
22255W        W64266   3.949   5.574   1.708
22256W        W64267   0.249  11.604  11.152
22257W        W64268   8.249   9.964   8.692
22258W        W64269  20.619  23.681   9.072
22259W        W64270  23.859  23.001   0.348
22260W        W64271  24.959  21.561  12.422
22261W        W64272  21.759   1.294  11.262
22262W        W64273  10.059   9.884  14.112
22263W        W64274  17.409  22.641   2.068
22264W        W64275  11.159  15.554   1.118
22265W        W64276  20.379  19.674   8.752
22266W        W64277   3.649  20.364   9.352
22267W        W64278  21.919   4.804  11.842
22268W        W64279  21.639  14.174   8.692
22269W        W64280  22.339   5.794  10.832
22270W        W64281  22.119   2.824   8.392
22271W        W64282   5.129  17.014   0.428
22272W        W64283   7.919  21.354   3.492
22273W        W64284   2.509   8.584   0.468
22274W        W64285   3.289   6.964  15.642
22275W        W64286   4.999  10.944   2.882
22276W        W64287   2.879  22.581   9.032
22277W        W64288  10.569   0.634   9.472
22278W        W64289  15.589   4.414   9.642
22279W        W64290  18.649  20.114  11.362
22280W        W64291  11.519   0.184   2.478
22281W        W64292  23.979  22.151   9.072
22282W        W64293  13.239  10.594   1.418
22283W        W64294   3.359  21.274   3.172
22284W        W64295   5.369  23.981   7.992
22285W        W64296  12.879   8.074  10.992
22286W        W64297  11.359  15.204   2.662
22287W        W64298  12.089  19.524   2.328
22288W        W64299  20.979   9.824   6.622
22289W        W64300  11.849   7.734   2.008
22290W        W64301  24.839   1.464   7.412
22291W        W64302  11.619  23.361   0.438
22292W        W64303  23.639   6.844   1.588
22293W        W64304   4.729   7.814   2.158
22294W        W64305   5.549   1.174   0.178
22295W        W64306  19.309  23.281   0.448
22296W        W64307   0.229  13.654   1.588
22297W        W64308  20.729   9.384   0.118
22298W        W64309  19.979  19.184  10.542
22299W        W64310  10.699  23.961  10.192
22300W        W64311   6.479   7.944   8.282
22301W        W64312   0.709  10.794   8.712
22302W        W64313   6.699  18.634   2.982
22303W        W64314   7.749  12.324   2.408
22304W        W64315  13.279   2.984  15.752
22305W        W64316   2.069  23.731   0.828
22306W        W64317  23.999  12.314   0.788
22307W        W64318   9.479   5.634   9.582
22308W        W64319   0.569  12.304   8.432
22309W        W64320   9.659  13.944   3.332
22310W        W64321  18.749  22.931  10.292
22311W        W64322  19.799  11.404   1.298
22312W        W64323  22.079  15.334  10.212
22313W        W64324  24.479  19.044  11.862
22314W        W64325  21.699   2.084   1.088
22315W        W64326  21.909  10.354   0.498
22316W        W64327   6.529   1.444   1.888
22317W        W64328   3.109   1.264   7.332
22318W        W64329  17.609   1.694  11.342
22319W        W64330  22.529  12.644   8.202
22320W        W64331   9.779  24.641   8.732
22321W        W64332   3.869  19.944   1.558
22322W        W64333   6.329  10.854   0.348
22323W        W64334  24.109  14.894   9.832
22324W        W64335   2.929   0.554   0.728
22325W        W64336  19.079   1.814   0.848
22326W        W64337  20.599   2.384  12.022
22327W        W64338   5.219   0.294  10.072
22328W        W64339  18.519  21.421   8.462
22329W        W64340  20.259  16.904  11.622
22330W        W64341  20.979  11.144   1.548
22331W        W64342  13.789  17.064   4.562
22332W        W64343  11.019  19.754   4.552
22333W        W64344  22.929   4.014  10.432
22334W        W64345  24.949  16.824   8.682
22335W        W64346   9.209  24.621  10.282
22336W        W64347  22.369  16.664   0.998
22337W        W64348   6.529   9.474   7.132
22338W        W64349   0.069   4.944   9.222
22339W        W64350  21.499  19.194   1.018
22340W        W64351  10.739  10.604   1.028
22341W        W64352   9.509   6.704   0.728
22342W        W64353  19.009  15.864   9.582
22343W        W64354   8.619   8.284  10.392
22344W        W64355  21.109  16.964   1.098
22345W        W64356  18.939  21.371   3.432
22346W        W64357   2.119  14.254  15.522
22347W        W64358   9.829  15.684   7.932
22348W        W64359  23.589   9.854   3.182
22349W        W64360  23.209   1.224  10.782
22350W        W64361  12.219   7.404   2.652
22351W        W64362   3.529  16.964   2.378
22352W        W64363   4.119  21.314   0.718
22353W        W64364  22.019   8.384   6.672
22354W        W64365  24.739   2.514   8.912
22355W        W64366   5.769  15.664   7.692
22356W        W64367   7.469   8.254  11.022
22357W        W64368  16.749   3.984  14.932
22358W        W64369  15.779   5.974  14.612
22359W        W64370   3.799  23.571   1.168
22360W        W64371  10.569  20.674   3.022
22361W        W64372   9.319  15.844   4.012
22362W        W64373  16.569   8.254  15.282
22363W        W64374  21.269  17.214   3.182
22364W        W64375   1.219   8.814  11.362
22365W        W64376   6.629   3.024  10.432
22366W        W64377   1.329  15.924   3.222
22367W        W64378  13.889  17.464   9.832
22368W        W64379   3.329   9.834   1.568
22369W        W64380  19.169  22.281   8.092
22370W        W64381  19.209  13.684   7.262
22371W        W64382  17.239  18.164   4.032
22372W        W64383   6.379  21.491   4.052
22373W        W64384  12.389   7.264  15.052
22374W        W64385  24.079  17.934   8.862
22375W        W64386  16.209  16.204  11.002
22376W        W64387   3.269   9.464   2.228
22377W        W64388  12.169  18.294  10.352
22378W        W64389  21.379  19.064   3.622
22379W        W64390  23.549   5.594   9.402
22380W        W64391  18.769  25.161  10.772
22381W        W64392   3.329  22.081  10.082
22382W        W64393   3.499   7.524   7.962
22383W        W64394   8.399   3.594  10.102
22384W        W64395  19.149  16.184   9.242
22385W        W64396  23.219  16.304   0.418
22386W        W64397   1.159   7.494  14.712
22387W        W64398  11.389   0.924   9.512
22388W        W64399  13.829  13.984   9.582
22389W        W64400  22.829   3.954  11.142
22390W        W64401  10.579   4.714   2.468
22391W        W64402  12.039  20.884   0.228
22392W        W64403  16.679  24.681   2.532
22393W        W64404  21.939   3.394   9.102
22394W        W64405   9.309   8.964   1.988
22395W        W64406  13.929  24.091   9.072
22396W        W64407  15.349  20.304  10.912
22397W        W64408   3.859  14.444   7.752
22398W        W64409  16.969  13.694  14.522
22399W        W64410  13.489   4.894   0.648
22400W        W64411   6.749   4.984   2.208
22401W        W64412  21.629  10.144  10.212
22402W        W64413   1.439  19.394   1.478
22403W        W64414   5.139   2.044   2.468
22404W        W64415  22.459  23.971  11.942
22405W        W64416   8.869   4.664   7.672
22406W        W64417   9.509  18.784   1.308
22407W        W64418  21.889  19.184   1.618
22408W        W64419  15.239  22.771  10.232
22409W        W64420   2.339   0.154   2.992
22410W        W64421   7.519  11.924   3.822
22411W        W64422   5.199  15.034   3.932
22412W        W64423   6.599  10.794   9.562
22413W        W64424  11.929  18.194   3.242
22414W        W64425  22.699  23.131  10.682
22415W        W64426  20.039   2.874  10.612
22416W        W64427   1.119   3.734   7.742
22417W        W64428  16.359   5.614   8.882
22418W        W64429  24.539   1.104   3.532
22419W        W64430   8.399  21.164   8.772
22420W        W64431  13.399  12.154  14.742
22421W        W64432  16.019   1.974   8.482
22422W        W64433   3.089  13.174   7.852
22423W        W64434   6.739  13.674  15.702
22424W        W64435  12.199  19.444   4.022
22425W        W64436  18.259  13.174   2.692
22426W        W64437  17.199  23.861   1.388
22427W        W64438  11.329   2.974  14.032
22428W        W64439  22.779  23.051  11.822
22429W        W64440   8.869   6.494   0.308
22430W        W64441  21.709   9.124   8.322
22431W        W64442  12.469   4.944   4.082
22432W        W64443  20.899  24.571  11.512
22433W        W64444  18.249  17.374   8.462
22434W        W64445   8.609   2.124   2.622
22435W        W64446   1.759   6.524   7.192
22436W        W64447  11.769   0.224   3.612
22437W        W64448  10.409   6.044   3.842
22438W        W64449   8.219  18.904   1.858
22439W        W64450   4.679  19.974   9.672
22440W        W64451  20.869  20.114  10.722
22441W        W64452  15.639  16.394   0.398
22442W        W64453   3.309   9.814   2.572
22443W        W64454   7.559  20.844   4.692
22444W        W64455  14.889  16.284   1.998
22445W        W64456   6.149   3.044   9.042
22446W        W64457   6.669  21.991   0.608
22447W        W64458   4.119  11.944  10.162
22448W        W64459   3.659   6.784   6.052
22449W        W64460  18.659   8.534   1.808
22450W        W64461   0.869  24.441   9.092
22451W        W64462   4.189  19.724   0.208
22452W        W64463   1.619  18.984   9.242
22453W        W64464  19.259  24.621   2.982
22454W        W64465  23.169  20.604   3.142
22455W        W64466   8.889  25.311  10.652
22456W        W64467  19.779   2.314   3.132
22457W        W64468  23.959  14.694  11.452
22458W        W64469   8.899  21.671   0.448
22459W        W64470  17.419  12.764   9.152
22460W        W64471  16.839   2.114   4.262
22461W        W64472  19.489  19.854   9.682
22462W        W64473   1.749  13.584   1.228
22463W        W64474  19.869  13.054   0.778
22464W        W64475  16.429  23.001  10.672
22465W        W64476  11.069  16.964   2.178
22466W        W64477  19.719  18.874  10.182
22467W        W64478  15.209  20.954   8.582
22468W        W64479  14.659   9.734   9.482
22469W        W64480  24.439  12.014   1.018
22470W        W64481   4.029  18.964  11.202
22471W        W64482  22.429   5.824  15.422
22472W        W64483  20.709  21.821   3.192
22473W        W64484   6.279  23.161  10.682
22474W        W64485  21.669  19.044   8.352
22475W        W64486  14.539  23.631   3.462
22476W        W64487  17.919  22.631  10.872
22477W        W64488  18.539   6.144   3.392
22478W        W64489   5.749  10.634  14.972
22479W        W64490  23.719  12.774   8.692
22480W        W64491   8.839  23.871   9.492
22481W        W64492  11.139  10.224   3.592
22482W        W64493  12.659  22.911   0.108
22483W        W64494  19.589   2.884  10.252
22484W        W64495  15.159  11.544  13.782
22485W        W64496  11.989  20.944   3.082
22486W        W64497   1.009  21.611   4.572
22487W        W64498   5.219  20.734   0.488
22488W        W64499   0.079  16.724  10.922
22489W        W64500   2.869   3.254   0.508
22490W        W64501   0.369  16.394  11.212
22491W        W64502  22.209  18.574  10.832
22492W        W64503   8.189  17.364  14.932
22493W        W64504   1.719  20.534   1.208
22494W        W64505   7.259  15.704   1.938
22495W        W64506   4.679  17.774  11.242
22496W        W64507  17.919  21.911   7.972
22497W        W64508   5.019   2.094  15.862
22498W        W64509   7.189  11.284  10.932
22499W        W64510   1.129  13.024   9.462
22500W        W64511   7.439  18.164   2.912
22501W        W64512   8.079   0.964   2.752
22502W        W64513  25.199  14.034   8.682
22503W        W64514   6.889  13.594   1.858
22504W        W64515   7.399   0.694   3.242
22505W        W64516  11.259  15.234  14.182
22506W        W64517   0.679  25.201  10.492
22507W        W64518   4.429   1.394  10.122
22508W        W64519  24.749  22.231   0.428
22509W        W64520  15.309  17.064   7.682
22510W        W64521  13.959   8.194   0.748
22511W        W64522   1.409   7.514  10.262
22512W        W64523  21.209   8.574   0.188
22513W        W64524  10.929  19.724   4.012
22514W        W64525  14.459  24.131   1.178
22515W        W64526   2.059  20.344   0.288
22516W        W64527  13.219   7.264   8.782
22517W        W64528   3.119   9.314   9.552
22518W        W64529  24.749   6.454  10.122
22519W        W64530  11.849  23.791   0.018
22520W        W64531   7.049   2.784  10.652
22521W        W64532   4.089   8.454   7.112
22522W        W64533   4.819  11.434   3.102
22523W        W64534  25.259  13.424  15.522
22524W        W64535  20.729   9.994   9.692
22525W        W64536  25.289   0.954   3.632
22526W        W64537   1.499  24.151   7.122
22527W        W64538  22.339  19.944   1.148
22528W        W64539  25.589   5.214   2.308
22529W        W64540  12.789   6.384   3.322
22530W        W64541  13.819  10.534  15.262
22531W        W64542  22.149  14.904   2.178
22532W        W64543  10.619  10.794   0.188
22533W        W64544   8.059  11.944   1.378
22534W        W64545  11.769   2.154   3.682
22535W        W64546   6.509  19.334   8.612
22536W        W64547  13.989  14.324   4.082
22537W        W64548  14.709   0.834  15.012
22538W        W64549   3.189   9.414   7.232
22539W        W64550   3.149  15.384   0.778
22540W        W64551  16.069   1.294  10.082
22541W        W64552  10.609  10.534  15.612
22542W        W64553  15.129  25.231   0.418
22543W        W64554   3.479  17.264   4.132
22544W        W64555  17.929  21.611  11.822
22545W        W64556  20.669   6.544  15.342
22546W        W64557  10.499   3.504   3.952
22547W        W64558  18.979  15.704  10.442
22548W        W64559  16.049  16.104   2.752
22549W        W64560  22.989  19.914   1.028
22550W        W64561  17.849   9.474   2.942
22551W        W64562   4.489   4.344   0.598
22552W        W64563  12.809  12.364   2.632
22553W        W64564   6.009   2.584   0.258
22554W        W64565  20.869  22.381   8.382
22555W        W64566   1.909   2.784  10.902
22556W        W64567   9.739   7.154   1.668
22557W        W64568   2.449   6.514   1.238
22558W        W64569   8.859  10.414  10.542
22559W        W64570  13.539  18.744   9.542
22560W        W64571   8.839  16.514   4.142
22561W        W64572  20.569  15.984   8.322
22562W        W64573   9.719   4.404   2.722
22563W        W64574  12.889  18.534   3.202
22564W        W64575   9.549   0.784   8.722
22565W        W64576   7.579  22.961   2.842
22566W        W64577   7.429  23.651   4.082
22567W        W64578   0.469  11.944   8.962
22568W        W64579   5.049   6.884   2.318
22569W        W64580  17.249  18.894   9.202
22570W        W64581   8.419  20.444   1.038
22571W        W64582   0.099  19.914   9.512
22572W        W64583  15.409  21.144   3.052
22573W        W64584   9.839   2.354   8.272
22574W        W64585  19.219   4.384   1.838
22575W        W64586  18.159   4.764   0.388
22576W        W64587  19.589   1.794   3.132
22577W        W64588  25.219   0.544   2.378
22578W        W64589   0.459  11.424  10.332
22579W        W64590   4.139  13.354   8.672
22580W        W64591  23.699  21.134  10.362
22581W        W64592   5.339   8.384   9.732
22582W        W64593   7.959   9.484   2.488
22583W        W64594   3.089  22.071  15.372
22584W        W64595   6.569  15.354   3.942
22585W        W64596  10.669   1.154   2.832
22586W        W64597  23.539  17.084   9.192
22587W        W64598   9.009  11.944   8.602
22588W        W64599  14.029  19.404   9.132
22589W        W64600  11.549   0.814   7.732
22590W        W64601  14.489  10.924  14.412
22591W        W64602  14.799  24.171  10.372
22592W        W64603  21.749  15.684   1.608
22593W        W64604   7.579  14.134  10.142
22594W        W64605  21.229   3.214  10.402
22595W        W64606   9.289  15.574   2.018
22596W        W64607   1.259  20.454   0.398
22597W        W64608   6.949  22.401   2.902
22598W        W64609  23.589  24.141  12.432
22599W        W64610  10.249  17.114   4.732
22600W        W64611   6.319   4.064   1.698
22601W        W64612  23.569  24.961  11.402
22602W        W64613  23.599   1.154   3.282
22603W        W64614  12.019   9.244   1.478
22604W        W64615   1.979  15.164   1.428
22605W        W64616  16.689   9.234  14.092
22606W        W64617  25.129   4.834   7.962
22607W        W64618  10.869   7.274  10.482
22608W        W64619   1.859  10.914   1.968
22609W        W64620  23.769  14.954   9.032
22610W        W64621  19.209  19.764  10.142
22611W        W64622  14.399   6.914   2.932
22612W        W64623  19.189   0.354  10.752
22613W        W64624  24.899  18.304  10.322
22614W        W64625   0.799   8.594   6.712
22615W        W64626   6.109  15.504  14.542
22616W        W64627   3.409   1.094   1.988
22617W        W64628  21.909   3.644   0.358
22618W        W64629  15.409   9.434  15.632
22619W        W64630  22.889   9.934   9.522
22620W        W64631  15.879  11.574   2.218
22621W        W64632   1.619  15.604   0.248
22622W        W64633  18.709   1.864   0.418
22623W        W64634  23.089  24.341   0.408
22624W        W64635   3.379   1.054   0.008
22625W        W64636  12.379  24.511   4.072
22626W        W64637   2.999  19.224   2.652
22627W        W64638   0.109  11.964  11.512
22628W        W64639  12.189   4.534   4.052
22629W        W64640  21.889   2.934   1.598
22630W        W64641  24.729  10.104   0.208
22631W        W64642  12.659   4.584   2.148
22632W        W64643   7.209   6.534   2.962
22633W        W64644  13.949   2.194   8.732
22634W        W64645  15.559   4.004   8.422
22635W        W64646  18.649  23.301   0.898
22636W        W64647  10.359  15.114   3.472
22637W        W64648  10.379  10.994   2.408
22638W        W64649  18.709   6.934  14.952
22639W        W64650  25.589   0.244  11.072
22640W        W64651  19.039  22.401   2.268
22641W        W64652  15.589   9.104   8.612
22642W        W64653   7.039  20.264   2.298
22643W        W64654  14.129  21.511  10.272
22644W        W64655  18.669   0.744  11.402
22645W        W64656   1.369  13.944   9.102
22646W        W64657  18.219  22.471   0.778
22647W        W64658  17.019  17.454   3.102
22648W        W64659   6.419  25.301  10.242
22649W        W64660   7.479  23.871   9.092
22650W        W64661  14.259   8.664   0.958
22651W        W64662  14.839   1.414  10.872
22652W        W64663  22.369   3.424   9.682
22653W        W64664   3.399  20.444  15.782
22654W        W64665  18.579   2.784  11.882
22655W        W64666  17.139   9.464   9.442
22656W        W64667  18.549   2.384  11.082
22657W        W64668  16.979  19.154   0.688
22658W        W64669   8.339  22.201   3.792
22659W        W64670  22.829   6.214  11.762
22660W        W64671   9.169  21.184   8.762
22661W        W64672   2.009  19.684  10.412
22662W        W64673  11.769  17.074  14.782
22663W        W64674  20.069  23.961   8.412
22664W        W64675   0.479  10.344  10.352
22665W        W64676  24.769  22.901   3.982
22666W        W64677  13.779   0.444   2.348
22667W        W64678  11.149   1.734  10.032
22668W        W64679  22.379  25.461   1.038
22669W        W64680  23.499  10.054   2.318
22670W        W64681  20.139   0.394   9.702
22671W        W64682  22.789  20.104  11.462
22672W        W64683  19.509   2.474   3.562
22673W        W64684  13.579  24.381   9.532
22674W        W64685  13.829  10.224  15.712
22675W        W64686  20.989  20.464  10.362
22676W        W64687  15.059  20.984   2.732
22677W        W64688  17.439  12.074   0.578
22678W        W64689  25.289  15.774   8.622
22679W        W64690   1.999   4.804   2.652
22680W        W64691  21.499  22.291   1.668
22681W        W64692   1.419   6.364   6.852
22682W        W64693  16.319  18.554   0.608
22683W        W64694  16.299  19.904   9.012
22684W        W64695   0.629   2.864   9.752
22685W        W64696  14.969   7.054   5.012
22686W        W64697  12.869   9.344   3.582
22687W        W64698  11.269  20.154   9.102
22688W        W64699  10.529   4.694   8.202
22689W        W64700  16.819  20.064   1.738
22690W        W64701  14.679  20.424   2.358
22691W        W64702  20.159   9.014  10.552
22692W        W64703   0.129  18.564   9.102
22693W        W64704  18.909   6.444  11.452
22694W        W64705  11.489   3.464  11.062
22695W        W64706  25.579   5.794   8.632
22696W        W64707  19.259   6.244   3.692
22697W        W64708  10.179   8.824   3.012
22698W        W64709   8.639  21.114   2.792
22699W        W64710  13.129  18.474   2.732
22700W        W64711   2.549   2.074   3.802
22701W        W64712   7.859   5.464   8.512
22702W        W64713   6.119  10.714  10.642
22703W        W64714   9.559   7.794   3.292
22704W        W64715   9.719   4.734  15.512
22705W        W64716   0.109   9.374  10.102
22706W        W64717  20.279   8.454   8.592
22707W        W64718   5.779   2.954   3.562
22708W        W64719   4.139  18.504  10.872
22709W        W64720  24.509   0.214  10.212
22710W        W64721  20.469  24.161   8.182
22711W        W64722  12.019  25.221   0.608
22712W        W64723  13.589  10.924   1.178
22713W        W64724  14.869  17.524   3.952
22714W        W64725  14.729  19.724  11.362
22715W        W64726  17.669  20.354   8.352
22716W        W64727   0.001  17.784   1.928
22717W        W64728  19.679   9.704   2.792
22718W        W64729   0.169  11.884  10.272
22719W        W64730  20.379  11.044   9.182
22720W        W64731  10.919  21.064   0.178
22721W        W64732  11.929  19.674  15.592
22722W        W64733   6.959  15.424   9.882
22723W        W64734   4.489   4.254  10.132
22724W        W64735   2.099   5.054  10.282
22725W        W64736   0.279  18.604  10.542
22726W        W64737  20.489  17.824   1.858
22727W        W64738  22.339  21.841  10.742
22728W        W64739  14.589  23.301   9.882
22729W        W64740   1.129   0.384  10.782
22730W        W64741  14.209  14.824   2.622
22731W        W64742   7.009   0.184  11.182
22732W        W64743  19.509   9.664   0.148
22733W        W64744  22.629   2.094   2.732
22734W        W64745   9.979  16.334   1.138
22735W        W64746  16.179  19.574  10.372
22736W        W64747  11.099   7.864  14.542
22737W        W64748   8.829   4.064   3.552
22738W        W64749   2.239  13.814   7.912
22739W        W64750  16.669   8.484   9.152
22740W        W64751   8.959   0.834   0.418
22741W        W64752   2.839   5.054   9.952
22742W        W64753  25.069  23.061   9.612
22743W        W64754   6.519   4.684   0.408
22744W        W64755  14.299  22.531   3.712
22745W        W64756  17.439   5.344  11.172
22746W        W64757  15.249  14.964   3.992
22747W        W64758  12.359  17.814   1.388
22748W        W64759   3.719   8.814   0.848
22749W        W64760  14.139  13.324   1.018
22750W        W64761  18.079  17.924   9.742
22751W        W64762  12.169  19.924   3.282
22752W        W64763  17.249   3.184   8.952
22753W        W64764  24.859  14.044  15.822
22754W        W64765  21.249  10.454  15.442
22755W        W64766   9.819  11.744  15.442
22756W        W64767   6.399  16.584  11.682
22757W        W64768  23.799  20.744  15.702
22758W        W64769  19.779  25.081   2.028
22759W        W64770  18.289  23.961   7.392
22760W        W64771  11.359   5.774  15.842
22761W        W64772  19.969  22.391   0.028
22762W        W64773   4.049  11.734   7.872
22763W        W64774  14.579  15.314   8.992
22764W        W64775  10.319   4.364   0.708
22765W        W64776   1.149  15.824  10.732
22766W        W64777  21.149  11.564   1.368
22767W        W64778   4.089  10.344  15.812
22768W        W64779   4.639   2.534   9.752
22769W        W64780  22.219   0.414  10.742
22770W        W64781   2.649  12.964   2.752
22771W        W64782   8.489   1.264   2.562
22772W        W64783   5.129  11.754   0.298
22773W        W64784   2.189  24.371   7.792
22774W        W64785  19.039  24.961   9.442
22775W        W64786  24.799  24.421  11.752
22776W        W64787  14.199  19.354  10.422
22777W        W64788  22.679   3.984   9.102
22778W        W64789   3.979  21.521   1.898
22779W        W64790  10.399  10.724   8.742
22780W        W64791   9.499   6.214  10.862
22781W        W64792  10.589   4.754   1.128
22782W        W64793  21.519  17.874  15.812
22783W        W64794  13.829  24.171   1.038
22784W        W64795   0.609  12.304   0.948
22785W        W64796   6.359   9.034   9.282
22786W        W64797   3.049   4.584   8.972
22787W        W64798  10.719  16.584  14.952
22788W        W64799   4.619  10.664   0.938
22789W        W64800  19.899  22.901   8.972
22790W        W64801  11.209  19.344   4.132
22791W        W64802   7.839  12.784   2.652
22792W        W64803   1.859  24.021   9.602
22793W        W64804   6.329  13.784   2.148
22794W        W64805  20.589  21.391   9.552
22795W        W64806  11.029  10.074  10.242
22796W        W64807  17.059   1.794   8.432
22797W        W64808   2.269   7.084  11.802
22798W        W64809   7.169  22.111   1.208
22799W        W64810   4.149   4.244   7.132
22800W        W64811   8.439   5.414   2.662
22801W        W64812  11.429  25.521   9.252
22802W        W64813   9.489  11.914   2.108
22803W        W64814  11.579   6.314   1.838
22804W        W64815  23.859  20.024   7.222
22805W        W64816   2.799  11.374   3.272
22806W        W64817  13.649  18.944   3.582
22807W        W64818  22.569  10.564   2.188
22808W        W64819   4.509  16.274  11.482
22809W        W64820  22.489   3.574   1.228
22810W        W64821  24.689  25.531   7.682
22811W        W64822   4.969  14.084   7.342
22812W        W64823   8.469  18.544   8.482
22813W        W64824  18.259   8.754  15.192
22814W        W64825   5.659  12.974  10.802
22815W        W64826   7.619  10.934  10.642
22816W        W64827  18.519   5.084   2.028
22817W        W64828  15.989   7.234  11.442
22818W        W64829   6.829  23.341   2.512
22819W        W64830  17.739  21.094  10.972
22820W        W64831  10.109  15.124  10.542
22821W        W64832  25.539   1.704  11.102
22822W        W64833   5.309  18.614  11.242
22823W        W64834  10.599   7.054   1.448
22824W        W64835  12.239  15.874  10.142
22825W        W64836  12.459  11.664   3.342
22826W        W64837  22.809  11.304   8.282
22827W        W64838   1.399  14.444  10.692
22828W        W64839   3.709   1.274   2.782
22829W        W64840   3.819  22.041   2.682
22830W        W64841  21.609   4.864   9.402
22831W        W64842  12.129  19.764  10.552
22832W        W64843  13.849   3.164  14.882
22833W        W64844  22.999  24.271  11.812
22834W        W64845  21.179  15.444   9.392
22835W        W64846   0.949  17.654   4.152
22836W        W64847  23.459  20.154   7.602
22837W        W64848   5.109  10.744   1.018
22838W        W64849  10.519  11.024  15.642
22839W        W64850  19.889   5.314   9.442
22840W        W64851  18.329   3.494   9.402
22841W        W64852  22.539   0.274   1.328
22842W        W64853   8.549   2.884   9.752
22843W        W64854  23.219  20.694   1.878
22844W        W64855  11.699  16.594   1.668
22845W        W64856  11.949   5.774   3.212
22846W        W64857  16.149   6.364  15.512
22847W        W64858   3.369  10.734   2.802
22848W        W64859  21.519   5.334  10.332
22849W        W64860  24.189  13.824   1.938
22850W        W64861  14.429  23.951   9.252
22851W        W64862   1.369  16.694  11.502
22852W        W64863   0.179  19.174  12.132
22853W        W64864  15.449   2.294  15.642
22854W        W64865  15.269  24.501  15.052
22855W        W64866   6.099   7.754   3.052
22856W        W64867   1.869  12.444   2.048
22857W        W64868   2.679  13.664  11.142
22858W        W64869  23.529   8.644  11.702
22859W        W64870  18.059  10.494   8.522
22860W        W64871  23.929  25.081   8.972
22861W        W64872   9.949  16.414   9.142
22862W        W64873  14.589  15.004   2.258
22863W        W64874   4.629  20.204  14.972
22864W        W64875  22.349   3.314  10.402
22865W        W64876  24.959  18.894  10.672
22866W        W64877   6.119  25.201   2.972
22867W        W64878  24.489   7.224   0.558
22868W        W64879  25.049  17.824   2.188
22869W        W64880  16.119  10.064   3.352
22870W        W64881  23.189  13.364  15.162
22871W        W64882  21.999  12.004   8.282
22872W        W64883  19.209   0.484   3.202
22873W        W64884  23.349  16.074   7.132
22874W        W64885  17.849   7.324   1.868
22875W        W64886   8.809  17.084   3.282
22876W        W64887   3.979  11.384   9.922
22877W        W64888  10.169  19.894   3.432
22878W        W64889  12.309  14.184   4.432
22879W        W64890  14.619   1.594   9.802
22880W        W64891   5.789   3.754   7.832
22881W        W64892   1.309  16.924   3.292
22882W        W64893   7.529  24.631   2.662
22883W        W64894  21.919  14.594   8.352
22884W        W64895  17.799  12.264   9.032
22885W        W64896   4.699   5.694   9.932
22886W        W64897   8.199   6.054  11.172
22887W        W64898  11.969  21.881   9.022
22888W        W64899   0.099   9.404   2.672
22889W        W64900   2.299   7.784   9.872
22890W        W64901   1.049   9.694   1.698
22891W        W64902  17.929   3.904   4.162
22892W        W64903  12.899  16.734   4.082
22893W        W64904   9.319   6.884  15.132
22894W        W64905  20.639   5.244   0.538
22895W        W64906  17.809   3.204  15.582
22896W        W64907   9.099   6.394   1.578
22897W        W64908  23.329  16.244   2.168
22898W        W64909  23.609   3.344   9.112
22899W        W64910   7.709  20.934   9.902
22900W        W64911   4.279  18.994   4.082
22901W        W64912  14.979   7.974  14.332
22902W        W64913   1.949  16.984   2.488
22903W        W64914  18.259   9.014   0.528
22904W        W64915  16.489  10.454   0.898
22905W        W64916  18.979  11.104   9.832
22906W        W64917  23.949  13.764   3.452
22907W        W64918  20.979  19.984   0.458
22908W        W64919  13.579   6.774  14.172
22909W        W64920   3.939   7.524   9.012
22910W        W64921  13.429  24.811   8.122
22911W        W64922   6.199  20.914  10.162
22912W        W64923   3.589  19.044   1.808
22913W        W64924  11.099  21.234   4.382
22914W        W64925  19.399  13.504  10.942
22915W        W64926  25.509  20.434   0.208
22916W        W64927   6.089   3.954   3.442
22917W        W64928  12.489   2.004   0.478
22918W        W64929  16.329   7.074   8.752
22919W        W64930   0.389  16.104  10.472
22920W        W64931  11.279   0.194   3.592
22921W        W64932   5.919  19.834   1.628
22922W        W64933  13.889  25.001   8.162
22923W        W64934  10.509   5.794   3.292
22924W        W64935   9.819  17.734   2.692
22925W        W64936   2.529   5.954  10.562
22926W        W64937  23.639  18.424   9.592
22927W        W64938   0.079   1.564   0.538
22928W        W64939  24.159  14.764   8.752
22929W        W64940  23.899  22.501   9.442
22930W        W64941  13.839   0.764   8.122
22931W        W64942  12.849   4.374   2.932
22932W        W64943   8.339   4.964   2.902
22933W        W64944  24.559  18.094   8.202
22934W        W64945  15.819   6.604   9.262
22935W        W64946   0.999  10.694   0.218
22936W        W64947   2.279  22.631   8.912
22937W        W64948  14.339  16.854  15.092
22938W        W64949  19.879  11.994  11.222
22939W        W64950  13.869  12.094   0.218
22940W        W64951   3.339  25.561  15.682
22941W        W64952  18.929   5.754  11.282
22942W        W64953  14.549   9.214  10.752
22943W        W64954   3.909   9.984   9.982
22944W        W64955  13.979  24.741   0.228
22945W        W64956   2.259   3.484   3.482
22946W        W64957  13.819   0.094   3.962
22947W        W64958  12.529  24.961  10.182
22948W        W64959  17.639   3.794  10.022
22949W        W64960  11.919  10.434  10.352
22950W        W64961  23.639   8.834   1.338
22951W        W64962  19.259  22.591   2.832
22952W        W64963  18.849   8.284   2.328
22953W        W64964   4.009   6.324   2.932
22954W        W64965   6.959  17.204   0.368
22955W        W64966  19.159   6.984  10.212
22956W        W64967  15.659  18.824   2.228
22957W        W64968   1.939   1.034   2.208
22958W        W64969  21.369  21.314  15.512
22959W        W64970  16.699   0.954   8.712
22960W        W64971   3.259   6.294  11.332
22961W        W64972  12.879   0.514   9.932
22962W        W64973   9.869   1.144   8.942
22963W        W64974   3.489   4.944   7.982
22964W        W64975   3.589  19.404   3.662
22965W        W64976  21.019  16.324  10.262
22966W        W64977  24.999  19.774  12.022
22967W        W64978  11.479  18.944   8.602
22968W        W64979  12.639   9.774   8.662
22969W        W64980  10.499   6.404   8.882
22970W        W64981  20.009  15.864  11.532
22971W        W64982  23.649  24.771   9.262
22972W        W64983  19.929   0.854   9.642
22973W        W64984   5.149  19.224  15.862
22974W        W64985  24.839  22.761   8.292
22975W        W64986  19.559  25.281   0.188
22976W        W64987  10.999  18.214   1.398
22977W        W64988  23.139  19.554   3.162
22978W        W64989   3.519  17.504   2.368
22979W        W64990   9.479  11.804   9.662
22980W        W64991  10.509   5.174   0.068
22981W        W64992  11.219  16.294  15.732
22982W        W64993  14.909  11.814   0.608
22983W        W64994   1.339   3.544   2.428
22984W        W64995  10.509   6.334   3.312
22985W        W64996  16.679  22.641   0.778
22986W        W64997  13.969   2.174   0.718
22987W        W64998   4.469  22.741   3.652
22988W        W64999   4.009  11.334   9.352
22989W        W65000  15.869  18.424   3.772
22990W        W65001  12.399   1.194   0.288
22991W        W65002   2.209  14.024   9.312
22992W        W65003  13.359   1.334   0.668
22993W        W65004   5.109  16.814   2.078
22994W        W65005  22.419   4.084   0.868
22995W        W65006  16.319   1.154   8.992
22996W        W65007  13.069  22.581   9.752
22997W        W65008  15.749   7.494  10.182
22998W        W65009  14.849  23.571   2.108
22999W        W65010   7.389  24.401  10.292
23000W        W65011  15.919  11.724   2.752
23001W        W65012   2.199   5.454   8.262
23002W        W65013   2.129  14.924  10.412
23003W        W65014  12.119  22.901   1.108
23004W        W65015   0.939  24.011   9.332
23005W        W65016   2.839   9.714   0.798
23006W        W65017  19.549   1.384   2.872
23007W        W65018   6.139   7.804  15.222
23008W        W65019   1.239  19.504   2.672
23009W        W65020  23.469  11.524  10.392
23010W        W65021  13.879  16.634   9.712
23011W        W65022   7.849  20.164   1.978
23012W        W65023   3.929  17.174   7.362
23013W        W65024   5.469  17.284   1.488
23014W        W65025   0.609   3.744   2.068
23015W        W65026  11.789   3.604   2.542
23016W        W65027  23.799   7.834  15.022
23017W        W65028  12.779  20.584   4.682
23018W        W65029   4.249  19.224   1.118
23019W        W65030  20.469   7.654   7.282
23020W        W65031  13.569  11.094   3.192
23021W        W65032  20.509  23.121   8.892
23022W        W65033  12.239  21.481   9.142
23023W        W65034  23.999  20.154   8.152
23024W        W65035  21.049  18.154  10.612
23025W        W65036   0.959   5.604   0.748
23026W        W65037  12.439  12.514   3.622
23027W        W65038  10.829   3.224   1.608
23028W        W65039  23.939  22.371  10.452
23029W        W65040  13.369   6.124   4.642
23030W        W65041   1.879  11.304   2.872
23031W        W65042  15.059  23.891   3.322
23032W        W65043  11.559  12.694   3.982
23033W        W65044  21.849  24.161   9.742
23034W        W65045  22.859  19.474   1.308
23035W        W65046  16.349   4.734  15.272
23036W        W65047  23.599  17.674   8.042
23037W        W65048   0.869  15.964   2.488
23038W        W65049  17.069  12.534   0.538
23039W        W65050  17.049  12.484  14.812
23040W        W65051  24.949  24.291   8.302
23041W        W65052  11.859   8.764   1.818
23042W        W65053  11.479   1.844   1.398
23043W        W65054  21.009  24.701   3.582
23044W        W65055  19.269   6.554   2.932
23045W        W65056  10.469  22.581  10.362
23046W        W65057   8.849  15.564   0.278
23047W        W65058  24.129   8.574   9.612
23048W        W65059   4.749  16.014   8.662
23049W        W65060  17.789   8.384  15.842
23050W        W65061  23.589  12.534   7.082
23051W        W65062   8.649  14.104  15.552
23052W        W65063  17.529   8.244  15.192
23053W        W65064  11.079  12.174  15.482
23054W        W65065   8.709  21.174   1.908
23055W        W65066   6.929   9.124   7.882
23056W        W65067   0.329  19.694   2.408
23057W        W65068  11.029   6.944   9.652
23058W        W65069  17.409   8.794   3.302
23059W        W65070   6.569   1.604   2.662
23060W        W65071  10.559  21.194   8.802
23061W        W65072  11.239  15.704   9.092
23062W        W65073   0.479   0.684  15.642
23063W        W65074  20.369  17.954   1.248
23064W        W65075   3.579  19.094   3.312
23065W        W65076  12.289   7.604   4.602
23066W        W65077  19.309  15.184   2.268
23067W        W65078   2.389   2.664   0.108
23068W        W65079   0.001  20.604   0.678
23069W        W65080  11.099  22.831   1.188
23070W        W65081  17.799  19.954   1.188
23071W        W65082  18.339  12.064   0.608
23072W        W65083   9.519  10.984  10.062
23073W        W65084  14.819  24.791   0.338
23074W        W65085  16.439   0.584   2.582
23075W        W65086   4.339   4.094  11.282
23076W        W65087   5.229   8.424   8.772
23077W        W65088  22.519  20.684   2.448
23078W        W65089   6.569  19.424   4.602
23079W        W65090  15.189  22.151  10.772
23080W        W65091   8.019   8.194  14.662
23081W        W65092  24.409   2.824   0.798
23082W        W65093   9.519   2.234   7.792
23083W        W65094   6.909   4.394   1.158
23084W        W65095   3.819  13.954  10.742
23085W        W65096   3.529  16.084   0.048
23086W        W65097  11.679  19.244   1.088
23087W        W65098   2.709  10.174   0.468
23088W        W65099  16.049   3.934  11.602
23089W        W65100   3.759  17.784   9.982
23090W        W65101   9.799  11.764   8.282
23091W        W65102   5.299  11.544   7.502
23092W        W65103  15.509  22.811   8.962
23093W        W65104   2.129  25.541   3.592
23094W        W65105  20.379  12.054  14.862
23095W        W65106   9.439  10.984   1.028
23096W        W65107  14.519  15.604   2.208
23097W        W65108  23.169  14.694   8.342
23098W        W65109  14.999   9.234   3.192
23099W        W65110  18.009  17.214   1.488
23100W        W65111   7.009   7.874  10.332
23101W        W65112  24.569  13.354   9.222
23102W        W65113  18.589  15.584   9.582
23103W        W65114  11.039  14.624  15.372
23104W        W65115   5.729  16.704  10.592
23105W        W65116  13.879   4.584   3.932
23106W        W65117  15.859   7.444   8.842
23107W        W65118   2.519   3.754   3.852
23108W        W65119   5.179  10.074  10.572
23109W        W65120  16.879  10.754   8.822
23110W        W65121   7.269   4.004   8.092
23111W        W65122  23.839  20.734   1.718
23112W        W65123  24.479  19.494   9.052
23113W        W65124  24.389  13.334   0.228
23114W        W65125  25.259  16.534  10.772
23115W        W65126  23.619  17.934  11.422
23116W        W65127  14.109   3.284  10.182
23117W        W65128   7.499  13.804   8.432
23118W        W65129   5.479   7.114   2.318
23119W        W65130   9.199   2.174   9.812
23120W        W65131   8.319  24.151   1.628
23121W        W65132  22.719  23.841  12.402
23122W        W65133  21.419  16.014  10.312
23123W        W65134   2.749   0.714   2.512
23124W        W65135  17.559  16.274  14.982
23125W        W65136   8.939   5.604   7.772
23126W        W65137  11.209  10.664   3.922
23127W        W65138  22.369   1.934  12.222
23128W        W65139   0.139   9.694   9.162
23129W        W65140  11.549  19.464   1.488
23130W        W65141  16.589  18.324   7.882
23131W        W65142  18.369  17.374  15.222
23132W        W65143   2.839  15.974   9.882
23133W        W65144  11.779   3.814   8.232
23134W        W65145   2.549   0.324   2.138
23135W        W65146  22.559   4.564   8.332
23136W        W65147  12.599  20.764   2.388
23137W        W65148   2.919   8.974   1.458
23138W        W65149  24.489  13.494   1.258
23139W        W65150  11.789   5.164  15.642
23140W        W65151   4.319   4.004  10.602
23141W        W65152  14.529  22.321   3.252
23142W        W65153  14.549   2.124   9.402
23143W        W65154  10.269  16.234   0.628
23144W        W65155  25.049   3.324   0.388
23145W        W65156  22.699  17.954   1.398
23146W        W65157  20.539  23.931  12.112
23147W        W65158  10.069  19.594  15.342
23148W        W65159   7.569   3.544   7.442
23149W        W65160   5.179  11.344  15.872
23150W        W65161  14.039  10.364   2.238
23151W        W65162   2.569  13.684   0.778
23152W        W65163  20.569  19.984   1.938
23153W        W65164  21.749  15.734  10.402
23154W        W65165   5.929   6.944   2.478
23155W        W65166   7.209  10.184  15.792
23156W        W65167   5.989  11.594  10.662
23157W        W65168  10.709  15.564   1.018
23158W        W65169  17.209   8.184   2.942
23159W        W65170  13.349  10.704  13.982
23160W        W65171   2.769  20.254   8.402
23161W        W65172  11.319   6.594   9.872
23162W        W65173  16.439   9.364  15.672
23163W        W65174   6.089  21.401   3.292
23164W        W65175   9.829  24.301   1.078
23165W        W65176  24.809  10.974  10.522
23166W        W65177  22.089  17.494   9.902
23167W        W65178   2.449  14.484   9.862
23168W        W65179  12.119   2.024   0.798
23169W        W65180  15.339   5.174  10.352
23170W        W65181  12.949  18.414   1.218
23171W        W65182  24.809   0.794   9.372
23172W        W65183   3.509   1.284   9.312
23173W        W65184   3.549  14.904   9.392
23174W        W65185   8.399  19.244  10.362
23175W        W65186   8.639   2.304   3.922
23176W        W65187   1.249  18.284  11.992
23177W        W65188  12.189   3.814   3.212
23178W        W65189  12.749  12.394   4.012
23179W        W65190  20.179  19.554   1.008
23180W        W65191  21.829   9.104   2.008
23181W        W65192  23.349  15.414   9.652
23182W        W65193   1.709   1.924   7.172
23183W        W65194  13.299   8.614  15.702
23184W        W65195   2.039   0.674   6.872
23185W        W65196  13.169  21.901   4.302
23186W        W65197  11.419  24.151   8.582
23187W        W65198  23.889   8.214  15.302
23188W        W65199   4.179   6.294   8.192
23189W        W65200   8.899   2.124  10.362
23190W        W65201  11.639  14.394   5.112
23191W        W65202   8.669  18.184   0.688
23192W        W65203   5.459  21.561   9.602
23193W        W65204  16.389  22.651   1.728
23194W        W65205   9.529  14.594   3.602
23195W        W65206  23.419  17.784   3.632
23196W        W65207   0.579  15.034   9.332
23197W        W65208   0.779  21.671   0.028
23198W        W65209  14.689   0.874  10.792
23199W        W65210   6.639   6.454  10.072
23200W        W65211   5.259  16.174   9.832
23201W        W65212   4.459   7.014   0.948
23202W        W65213  16.329  17.884   7.942
23203W        W65214  11.609   2.814   0.008
23204W        W65215   6.539  17.524   3.592
23205W        W65216  21.649   9.674  15.652
23206W        W65217  18.989  19.114   8.992
23207W        W65218  22.989   5.274   0.818
23208W        W65219  18.869  10.294   4.252
23209W        W65220  14.799   9.244   0.298
23210W        W65221   6.599  18.194  11.002
23211W        W65222  17.379  19.374   0.488
23212W        W65223  14.059   8.594   2.652
23213W        W65224  21.869   5.954   2.592
23214W        W65225  16.739  16.844   2.522
23215W        W65226   6.419   5.424   3.742
23216W        W65227   5.929  24.861  10.802
23217W        W65228  18.719   8.604   8.352
23218W        W65229   2.819  19.714   2.478
23219W        W65230   9.979  22.921   1.528
23220W        W65231   4.099   3.964  10.072
23221W        W65232   3.249   9.574   1.008
23222W        W65233  10.069  14.004   4.452
23223W        W65234  19.489   9.204   2.992
23224W        W65235  20.689  23.841  11.022
23225W        W65236   9.859  17.284   1.238
23226W        W65237   7.539  15.194  15.772
23227W        W65238   4.929  15.214  10.842
23228W        W65239  23.499  21.511   8.862
23229W        W65240  24.019   4.444   0.268
23230W        W65241  10.979   4.554   9.852
23231W        W65242   0.409  12.904   0.148
23232W        W65243  12.589  11.604   5.052
23233W        W65244  12.009  15.754   2.168
23234W        W65245  14.299  24.291   3.022
23235W        W65246  22.319  12.354  10.242
23236W        W65247  25.559   1.114   0.838
23237W        W65248   5.359  21.284   3.162
23238W        W65249  13.409  19.564   8.302
23239W        W65250   9.679  19.154   9.802
23240W        W65251  18.129   7.954   9.552
23241W        W65252  23.849  22.601   9.912
23242W        W65253  17.689   0.314  10.482
23243W        W65254   5.189  10.524   2.682
23244W        W65255  25.289  25.481   0.838
23245W        W65256  14.649  18.094  15.542
23246W        W65257   3.269   2.634  10.662
23247W        W65258   6.389  10.454   9.272
23248W        W65259  17.749  14.654   3.752
23249W        W65260  25.379   3.504  10.792
23250W        W65261  19.359  10.204  10.182
23251W        W65262  25.159  14.584   0.068
23252W        W65263  13.919   2.444   3.692
23253W        W65264  13.019   5.894   8.122
23254W        W65265   0.389  17.454   8.862
23255W        W65266  13.939   0.414   0.528
23256W        W65267  22.929  23.311   3.652
23257W        W65268   4.589   9.504  10.632
23258W        W65269  20.239   3.454  15.592
23259W        W65270  13.009  10.614   5.032
23260W        W65271  22.629   2.634   3.642
23261W        W65272  14.449   2.864  10.362
23262W        W65273  19.509  17.434   2.278
23263W        W65274   4.069  19.944   4.202
23264W        W65275  12.519  25.581   3.512
23265W        W65276  19.839  13.504   9.592
23266W        W65277  11.149  18.464   3.682
23267W        W65278  21.379  16.964   9.232
23268W        W65279  17.779  25.241  10.962
23269W        W65280   0.739  22.541   1.228
23270W        W65281   7.459  23.911  10.812
23271W        W65282   4.249  12.364   7.772
23272W        W65283  20.739  15.524   8.222
23273W        W65284   9.539  23.941   1.898
23274W        W65285  21.829  11.704   1.648
23275W        W65286  20.659  15.294   3.292
23276W        W65287  13.139  21.561   0.848
23277W        W65288  10.079   9.114   0.478
23278W        W65289  19.129   5.034   2.652
23279W        W65290  13.089  25.261   9.222
23280W        W65291  24.819   5.404  11.092
23281W        W65292  22.999  20.014   8.052
23282W        W65293  14.329  18.634   4.512
23283W        W65294  13.959  15.054  15.262
23284W        W65295  24.249  10.324   2.752
23285W        W65296  21.499   9.954   1.758
23286W        W65297  20.659   5.624  15.732
23287W        W65298  18.169   4.874   4.272
23288W        W65299  17.769  24.211  11.102
23289W        W65300  15.879   0.994   0.968
23290W        W65301  23.829   0.554  10.332
23291W        W65302   5.149  10.064   8.862
23292W        W65303  11.989   7.254   2.178
23293W        W65304   0.519  17.294  10.172
23294W        W65305  19.789  18.784  10.822
23295W        W65306  19.319  18.014   8.042
23296W        W65307   8.639  18.034  15.702
23297W        W65308   6.249  14.344   7.822
23298W        W65309  18.719  21.841   9.492
23299W        W65310  24.009  19.454   1.968
23300W        W65311  10.459  21.951   8.822
23301W        W65312  14.559  11.504   0.748
23302W        W65313  15.069   9.124   8.412
23303W        W65314  17.169  14.374   8.372
23304W        W65315  10.459  14.754  11.102
23305W        W65316  17.769  21.294   1.778
23306W        W65317  17.089   3.364  10.372
23307W        W65318  12.849   3.524  15.072
23308W        W65319   2.459   5.074   2.732
23309W        W65320  18.369   7.724   8.732
23310W        W65321  22.089  14.134   8.462
23311W        W65322   1.299   7.424  10.752
23312W        W65323   9.929   4.484   0.348
23313W        W65324  23.169   2.304   0.118
23314W        W65325   0.869  25.391   1.998
23315W        W65326  12.999  11.994  15.082
23316W        W65327  25.579  12.634   2.448
23317W        W65328  22.249  18.844   1.108
23318W        W65329  13.749  22.641  10.842
23319W        W65330  20.819   2.844   2.388
23320W        W65331   4.819  14.134   1.228
23321W        W65332  23.309  14.884   7.052
23322W        W65333  19.859  13.064   1.788
23323W        W65334  25.399  13.834   9.092
23324W        W65335   8.389   6.934   0.058
23325W        W65336   8.209   8.394   3.632
23326W        W65337  21.629   7.044   8.352
23327W        W65338   9.849   6.154  15.742
23328W        W65339  21.569   8.124   3.862
23329W        W65340  15.409  22.001   7.852
23330W        W65341   3.489   6.094  10.352
23331W        W65342   2.869  10.864   8.652
23332W        W65343  22.679  25.401   7.032
23333W        W65344  20.269   3.614   9.972
23334W        W65345   3.709   8.824  10.072
23335W        W65346   4.099  21.491  11.322
23336W        W65347   0.469  11.744   0.768
23337W        W65348  21.129   5.824   3.182
23338W        W65349  21.939  18.664  10.422
23339W        W65350   4.209   9.754  15.742
23340W        W65351  24.839  12.184   2.018
23341W        W65352  22.539   6.024   0.898
23342W        W65353   1.529  24.311   9.122
23343W        W65354  21.849  24.631   8.462
23344W        W65355   4.019  23.191   1.278
23345W        W65356  12.279  12.674  15.852
23346W        W65357  24.439  25.541  11.262
23347W        W65358   4.309   7.474   8.722
23348W        W65359  22.649  19.704   9.862
23349W        W65360   1.649   0.224  11.572
23350W        W65361  21.239  14.684  15.542
23351W        W65362  17.679  11.734   1.008
23352W        W65363  13.579   3.944  14.892
23353W        W65364  13.609  13.764  14.842
23354W        W65365  11.849   2.304   1.958
23355W        W65366  10.909  15.824   1.468
23356W        W65367   2.909   1.434  15.422
23357W        W65368  20.519  21.841  10.012
23358W        W65369  14.379   6.844  15.202
23359W        W65370   8.939  19.304   8.612
23360W        W65371  20.519   4.804   0.918
23361W        W65372  21.939  13.614   0.988
23362W        W65373   2.719   6.514   7.502
23363W        W65374  12.469  19.274   8.162
23364W        W65375  22.579   9.514   9.572
23365W        W65376   6.309  22.331   1.218
23366W        W65377  16.899   8.334   0.568
23367W        W65378   6.179  22.301   8.432
23368W        W65379  18.529   9.204   9.582
23369W        W65380  14.399  14.784   3.322
23370W        W65381   0.119   5.364  15.382
23371W        W65382  15.009  10.654   9.202
23372W        W65383   1.339   7.714   2.802
23373W        W65384  25.279  20.344   8.202
23374W        W65385   5.969  12.324  14.432
23375W        W65386  14.859  21.491   9.282
23376W        W65387  20.299   8.274   2.852
23377W        W65388  21.079   1.454   8.542
23378W        W65389  22.349   5.444   3.152
23379W        W65390   9.939  16.914   9.202
23380W        W65391  13.149  12.644   4.782
23381W        W65392  22.229  16.154  10.592
23382W        W65393   0.459   1.614   9.772
23383W        W65394  22.439  20.274   3.482
23384W        W65395  14.459  23.701  15.842
23385W        W65396  20.139  20.474   7.542
23386W        W65397  22.529  22.731   2.418
23387W        W65398  12.479  19.854   2.158
23388W        W65399   3.299   2.764   8.242
23389W        W65400  18.159  23.791  11.082
23390W        W65401  11.949   4.634  15.682
23391W        W65402   6.039   0.514  10.212
23392W        W65403  24.009   4.974   0.698
23393W        W65404   5.319  12.934   9.412
23394W        W65405  19.729  15.914   8.592
23395W        W65406   2.599  21.981   0.248
23396W        W65407  13.229  13.734   3.012
23397W        W65408   5.299   1.894   9.812
23398W        W65409  21.469  19.974   3.152
23399W        W65410   1.249  10.404  11.302
23400W        W65411   7.039   5.644  10.162
23401W        W65412  13.629   5.594   1.908
23402W        W65413   6.499  12.734  15.842
23403W        W65414  21.839  14.064   2.722
23404W        W65415  22.139   5.854   1.138
23405W        W65416  20.829   3.244   8.662
23406W        W65417  24.949  23.481  11.462
23407W        W65418   8.669  20.894  10.272
23408W        W65419  17.229  23.181   1.878
23409W        W65420  16.359  11.424   2.388
23410W        W65421  22.729  25.171   8.392
23411W        W65422  20.549  14.924   9.992
23412W        W65423   7.689   6.304  10.752
23413W        W65424  21.929  23.551  11.072
23414W        W65425  17.199  18.514  11.922
23415W        W65426  20.729   7.054  15.482
23416W        W65427   2.599   7.404   3.122
23417W        W65428   4.799   5.374   8.622
23418W        W65429   0.759  14.924  11.312
23419W        W65430  14.169  23.521  10.062
23420W        W65431  22.029   3.614  12.112
23421W        W65432   8.099  22.541   8.802
23422W        W65433  13.829  22.881   3.942
23423W        W65434  25.189  10.724   8.182
23424W        W65435  18.969   5.514   8.422
23425W        W65436  22.439  18.224   0.308
23426W        W65437  10.259  23.811   0.358
23427W        W65438  21.919   8.114   9.992
23428W        W65439  23.179  21.044   1.048
23429W        W65440  17.219   8.664   3.842
23430W        W65441  24.249  21.194   8.492
23431W        W65442  12.189  22.761  15.172
23432W        W65443   0.639  20.594   3.292
23433W        W65444  18.689   8.664   0.628
23434W        W65445   1.759  12.374  10.682
23435W        W65446  13.019  17.524   0.778
23436W        W65447   2.209   7.314   7.392
23437W        W65448   0.409  14.054   8.072
23438W        W65449   8.789  12.654   2.408
23439W        W65450  23.239   8.394   0.628
23440W        W65451  21.849  22.061  12.222
23441W        W65452  12.829  16.014   9.442
23442W        W65453  23.089   7.414   9.692
23443W        W65454  25.239  22.031   1.078
23444W        W65455   8.429   0.254  15.662
23445W        W65456   9.249   8.424  10.972
23446W        W65457   0.189  10.924   3.772
23447W        W65458  22.509   3.024  12.432
23448W        W65459   7.209  21.551   0.328
23449W        W65460  14.019  22.291   3.322
23450W        W65461   0.089  16.134   2.188
23451W        W65462  12.269   0.894  15.172
23452W        W65463   2.539   6.134   8.372
23453W        W65464   5.639   6.854  11.312
23454W        W65465  22.849   3.364   1.528
23455W        W65466   1.659   8.364   2.088
23456W        W65467   3.049   0.754  14.752
23457W        W65468   9.879   0.894   3.302
23458W        W65469   7.869   9.974   2.418
23459W        W65470  24.169   9.304  11.522
23460W        W65471   1.869  23.581  12.042
23461W        W65472  16.039  17.264  10.952
23462W        W65473  11.119  25.331  10.212
23463W        W65474  12.479  22.151   1.378
23464W        W65475   5.029  10.514   8.502
23465W        W65476  11.019  16.184   3.472
23466W        W65477   1.429   8.274   9.652
23467W        W65478   2.919  23.931   1.408
23468W        W65479  11.409  13.194   3.222
23469W        W65480  17.559  24.801   8.752
23470W        W65481  21.629  18.774   7.862
23471W        W65482   6.489   0.694  10.162
23472W        W65483   9.619   4.614   1.328
23473W        W65484  21.169   0.924   9.102
23474W        W65485  23.519  22.931  11.132
23475W        W65486  22.289  24.751   2.632
23476W        W65487   5.849  20.574  11.652
23477W        W65488  11.749   0.014   8.322
23478W        W65489  20.969   0.844   7.372
23479W        W65490  10.249   3.294   0.068
23480W        W65491   3.639  15.384   9.362
23481W        W65492  24.449  18.214  11.292
23482W        W65493  15.859  23.881   0.998
23483W        W65494  18.389  15.764   2.198
23484W        W65495  12.339   3.074  10.622
23485W        W65496  14.279  11.544   3.562
23486W        W65497  18.689  23.121   8.892
23487W        W65498  23.389  13.664   2.872
23488W        W65499  24.959  24.811   8.222
23489W        W65500  14.039   3.934   8.662
23490W        W65501  22.589  15.244   2.208
23491W        W65502  22.209  11.664  15.542
23492W        W65503  15.699  23.341  11.342
23493W        W65504  17.989   0.814   0.348
23494W        W65505  19.739  20.504   0.988
23495W        W65506  22.229   9.474   9.122
23496W        W65507  10.789   0.394   0.098
23497W        W65508  24.849  12.354   8.022
23498W        W65509  13.349  14.414   2.562
23499W        W65510   7.719   0.054   3.402
23500W        W65511   4.339  20.854   9.122
23501W        W65512   2.469  17.574   9.392
23502W        W65513  16.659   7.974   8.932
23503W        W65514   2.649  12.484  10.132
23504W        W65515   5.429  22.021  14.982
23505W        W65516  25.179   3.314   3.312
23506W        W65517   6.759   1.584   8.552
23507W        W65518   0.279  23.251   1.668
23508W        W65519  24.149  24.051   9.022
23509W        W65520  16.149  14.764   3.552
23510W        W65521   1.349  11.034  10.792
23511W        W65522  11.949  14.924   2.328
23512W        W65523  10.979   5.824   9.442
23513W        W65524  11.579   0.614  15.562
23514W        W65525  11.099   0.364   2.228
23515W        W65526  13.249  20.144   1.878
23516W        W65527  17.319   7.774   3.822
23517W        W65528  18.459  11.784   8.612
23518W        W65529  25.549   2.944   2.348
23519W        W65530  23.689  12.474   7.752
23520W        W65531   2.799   7.044  15.622
23521W        W65532   9.949  17.614   8.792
23522W        W65533  13.809  21.561   3.782
23523W        W65534  12.429  18.824   8.672
23524W        W65535   2.159  22.841  12.042
23525W        W65536   6.649  10.794   2.742
23526W        W65537  16.099   1.454   9.352
23527W        W65538  13.789  18.714   9.992
23528W        W65539   6.279  12.864   0.838
23529W        W65540  21.859   9.324   8.762
23530W        W65541   7.849   3.584  14.972
23531W        W65542   3.849  19.294  10.902
23532W        W65543   8.779   4.744   3.152
23533W        W65544  17.419  19.134   0.998
23534W        W65545   8.929  10.964   0.008
23535W        W65546   1.629   8.414  14.962
23536W        W65547  16.769  19.484   0.408
23537W        W65548   5.099  18.194   8.762
23538W        W65549   4.039   5.074  11.542
23539W        W65550  12.589   2.514   4.132
23540W        W65551  15.429   9.744   9.752
23541W        W65552   6.659   5.894   2.702
23542W        W65553   5.389  20.414   9.202
23543W        W65554  21.529   7.844   0.228
23544W        W65555  10.139  22.031  10.922
23545W        W65556  11.029   3.004   8.502
23546W        W65557  24.239  11.674   0.108
23547W        W65558  19.109   4.914   1.808
23548W        W65559   5.289   5.854   7.742
23549W        W65560  22.689  14.644   0.708
23550W        W65561   8.399  15.904   3.002
23551W        W65562   9.419  23.381   4.802
23552W        W65563  24.819  16.814  12.472
23553W        W65564  22.739  22.081  10.592
23554W        W65565   1.739   9.074  10.812
23555W        W65566  14.979   2.244  15.302
23556W        W65567  19.189  21.661  12.222
23557W        W65568   1.169   4.494  10.262
23558W        W65569  24.639   9.294   8.462
23559W        W65570  20.789  18.714   9.162
23560W        W65571  19.399   9.974  15.572
23561W        W65572   7.959   3.064   7.642
23562W        W65573   5.579  13.244  15.522
23563W        W65574  12.949  23.021   9.572
23564W        W65575   9.509  17.634   2.298
23565W        W65576  15.159   9.644   0.448
23566W        W65577   4.039   8.824  10.432
23567W        W65578  13.499  15.584   4.252
23568W        W65579  12.839   4.654   9.682
23569W        W65580  10.189   2.514   3.022
23570W        W65581  15.169  10.154   9.442
23571W        W65582   3.049   4.804   2.652
23572W        W65583   3.759  15.584  10.672
23573W        W65584  24.859  13.774  12.032
23574W        W65585   9.729   1.094   3.772
23575W        W65586  20.989   5.614   2.762
23576W        W65587  10.569   8.824   1.348
23577W        W65588   7.929   3.774   3.652
23578W        W65589  18.249  11.024  10.542
23579W        W65590   4.009   7.054   0.098
23580W        W65591   8.619  25.511  10.122
23581W        W65592   3.589  24.561   9.212
23582W        W65593  15.889  16.304  10.092
23583W        W65594  10.509  19.884  15.332
23584W        W65595  15.479  12.444   9.382
23585W        W65596  21.399  18.654   1.078
23586W        W65597   7.219   4.064   1.918
23587W        W65598   4.009  20.994   0.318
23588W        W65599  24.349  21.731  10.712
23589W        W65600  17.149   0.124  10.392
23590W        W65601  19.679  20.844   2.388
23591W        W65602  18.809  16.124   1.238
23592W        W65603   4.919  20.374   0.338
23593W        W65604  11.669   4.324  11.052
23594W        W65605  24.789   4.874   2.398
23595W        W65606  21.659   5.384   9.682
23596W        W65607   0.409  24.481   3.062
23597W        W65608   2.399   8.654   9.692
23598W        W65609   3.259  12.824   2.278
23599W        W65610   7.449   4.254   2.328
23600W        W65611  16.329  21.054   9.902
23601W        W65612  12.429  10.224   9.872
23602W        W65613   2.959  20.504   3.992
23603W        W65614  20.399  15.554   9.202
23604W        W65615   5.769  16.204   0.738
23605W        W65616  15.449  12.254   4.432
23606W        W65617  21.339   3.154   9.382
23607W        W65618  24.139  23.941   9.482
23608W        W65619  19.269   5.714   2.088
23609W        W65620  19.139  16.414   8.432
23610W        W65621  16.519  10.384   0.378
23611W        W65622   2.289  14.354   1.108
23612W        W65623   1.399  13.874   9.622
23613W        W65624  17.759  11.544   1.498
23614W        W65625  16.649  17.464   3.432
23615W        W65626  14.599  23.031   8.072
23616W        W65627  21.549   8.844  11.202
23617W        W65628   7.609  20.884   1.298
23618W        W65629  25.279   4.764   2.338
23619W        W65630  13.479  21.451   9.532
23620W        W65631  21.619   1.684   1.498
23621W        W65632  22.869  13.484   2.198
23622W        W65633   6.819  12.934  15.272
23623W        W65634   8.489  11.604   1.968
23624W        W65635  19.659   2.274   7.902
23625W        W65636  19.789   7.214   2.238
23626W        W65637  15.359  21.991   0.368
23627W        W65638   1.159  16.404  10.852
23628W        W65639  24.599   9.444   2.562
23629W        W65640   8.969  11.324  14.062
23630W        W65641   5.389  10.904   8.492
23631W        W65642  10.219  14.744   2.088
23632W        W65643  16.009  20.214   9.792
23633W        W65644  20.149   5.734  10.122
23634W        W65645  21.219  12.844   0.118
23635W        W65646   8.039   7.194   2.732
23636W        W65647  21.829   9.944   2.942
23637W        W65648   1.789   0.964   7.612
23638W        W65649  10.419   9.474  15.272
23639W        W65650  21.069  20.534   1.248
23640W        W65651  21.079  11.994   0.628
23641W        W65652   4.319  12.214   1.648
23642W        W65653   1.689  13.204   9.642
23643W        W65654  23.599   8.164  10.352
23644W        W65655  12.239   4.454   8.632
23645W        W65656   0.299  23.131   3.222
23646W        W65657  11.089   9.154   0.208
23647W        W65658   6.849   8.134   1.748
23648W        W65659   7.239  18.094   1.448
23649W        W65660  22.249   2.954   9.032
23650W        W65661  18.839   4.774   2.308
23651W        W65662  14.329  11.764  14.032
23652W        W65663  18.279   0.504   2.512
23653W        W65664   7.459  13.734  15.522
23654W        W65665  10.599   0.834   3.862
23655W        W65666  25.569   3.204   1.018
23656W        W65667  19.809  10.104   9.932
23657W        W65668   2.799   1.074   8.132
23658W        W65669   2.429  20.524   9.942
23659W        W65670  14.359  19.574   2.692
23660W        W65671  20.639   7.954   3.672
23661W        W65672   6.949  12.874  10.202
23662W        W65673  12.069   4.784   3.612
23663W        W65674  21.299   7.654  15.532
23664W        W65675  25.559  14.404  11.862
23665W        W65676  22.069  20.114  10.912
23666W        W65677  17.199   3.144   7.552
23667W        W65678  13.149   0.204   1.138
23668W        W65679   4.049  10.504   8.282
23669W        W65680  11.539   3.234   2.278
23670W        W65681  24.679  14.314   8.822
23671W        W65682  12.289  14.434   1.798
23672W        W65683   5.459  21.571   0.738
23673W        W65684   5.769  11.864   1.768
23674W        W65685  15.379   0.714   3.662
23675W        W65686   0.379  23.201   4.122
23676W        W65687   2.559  13.074   2.248
23677W        W65688  10.969   8.874   8.422
23678W        W65689  24.219   2.834  15.192
23679W        W65690  23.319   7.924  11.162
23680W        W65691   9.209  21.661   2.932
23681W        W65692  10.189  12.214   9.762
23682W        W65693   2.289  11.194   3.322
23683W        W65694  17.109   2.294  15.292
23684W        W65695   5.889   4.314   9.992
23685W        W65696  23.029   4.414  10.762
23686W        W65697  23.139  15.324  10.092
23687W        W65698   1.529   6.834   2.118
23688W        W65699  16.619   6.634  15.612
23689W        W65700  20.269  12.604   2.522
23690W        W65701  20.649  11.674   2.448
23691W        W65702  23.129  15.984   3.092
23692W        W65703  12.159   2.534   9.552
23693W        W65704   7.089   0.134   1.618
23694W        W65705   5.739  12.104  15.642
23695W        W65706  12.479  22.801   3.872
23696W        W65707   7.719  15.314   2.512
23697W        W65708   5.159  11.744   3.282
23698W        W65709   6.199   3.304   2.892
23699W        W65710   1.649   8.134  10.652
23700W        W65711  22.349  14.134   9.272
23701W        W65712  17.199   1.074  10.412
23702W        W65713  19.949  15.314   1.028
23703W        W65714   9.299  19.194   9.002
23704W        W65715  11.079   6.964   7.442
23705W        W65716   7.779   6.904   1.968
23706W        W65717  16.319   3.454   2.932
23707W        W65718  21.339  24.911   8.252
23708W        W65719  14.559  11.554   1.258
23709W        W65720   6.059  19.804   0.728
23710W        W65721   7.439  22.601   9.742
23711W        W65722   1.609  17.164   2.892
23712W        W65723   9.669  21.591   1.928
23713W        W65724   9.109  16.664  11.492
23714W        W65725  23.959  18.784  12.232
23715W        W65726   2.259  10.704   0.988
23716W        W65727  24.859   9.724   8.922
23717W        W65728  22.799  13.774   9.072
23718W        W65729  14.849  21.361   3.902
23719W        W65730   1.509   4.464   1.278
23720W        W65731  17.579   9.134   1.958
23721W        W65732   8.299   5.304   8.182
23722W        W65733  24.299   1.494   1.658
23723W        W65734  13.929   7.604  10.422
23724W        W65735   8.929   7.344  14.532
23725W        W65736   7.999  21.621   9.432
23726W        W65737   0.879  21.951   0.458
23727W        W65738  16.039  22.251   2.368
23728W        W65739   6.279  11.264   8.562
23729W        W65740   3.439   4.374  15.792
23730W        W65741  19.079   1.444   1.198
23731W        W65742  24.459   0.294   8.492
23732W        W65743   9.259   8.224  10.002
23733W        W65744  22.539  18.174  15.642
23734W        W65745  18.699  18.284   1.188
23735W        W65746  22.179  21.511   0.708
23736W        W65747  23.569  17.014   9.712
23737W        W65748   0.079  24.471   7.992
23738W        W65749  23.949  24.141   0.988
23739W        W65750  17.719  20.064   9.352
23740W        W65751  12.139   3.674  15.732
23741W        W65752  21.419  22.811  11.682
23742W        W65753  10.849   6.004  10.332
23743W        W65754   6.329  19.924  10.322
23744W        W65755   5.939  17.234  15.582
23745W        W65756   1.169  21.781   2.338
23746W        W65757   6.399  14.794   0.558
23747W        W65758   6.059  13.214   2.732
23748W        W65759   7.949   5.054   2.058
23749W        W65760   3.809  15.894   1.738
23750W        W65761   8.929  21.024   1.478
23751W        W65762   3.769   1.154   8.252
23752W        W65763   1.859   3.764   0.488
23753W        W65764  20.369  10.364  15.812
23754W        W65765   9.229   5.504   0.928
23755W        W65766  21.169  16.454   3.732
23756W        W65767   3.379  15.404   2.742
23757W        W65768  22.889   5.524   1.788
23758W        W65769  24.529   5.264  10.652
23759W        W65770   9.679   1.844   4.522
23760W        W65771  14.679   2.064   9.902
23761W        W65772   9.059   1.444   1.778
23762W        W65773  25.009  13.754  10.422
23763W        W65774  15.249  17.304   4.402
23764W        W65775  23.959   7.004  15.722
23765W        W65776   6.569  16.584   8.292
23766W        W65777  19.649  23.131  10.062
23767W        W65778  25.449  17.094   0.298
23768W        W65779  14.729  22.221   0.638
23769W        W65780   5.379  17.784   8.882
23770W        W65781  13.139   2.894   2.148
23771W        W65782  24.129   2.044   0.928
23772W        W65783  23.699  11.984   7.692
23773W        W65784   8.109   8.874  14.972
23774W        W65785   2.079   7.924  10.302
23775W        W65786   2.229   4.514   0.538
23776W        W65787  12.929  10.324  15.212
23777W        W65788  15.069   5.034   4.522
23778W        W65789  21.309  21.911   3.732
23779W        W65790   3.419   1.734   1.918
23780W        W65791   8.739  19.124  10.882
23781W        W65792   5.809  22.771   0.528
23782W        W65793   3.489   1.044   0.558
23783W        W65794  22.109   5.924   7.852
23784W        W65795   4.509   4.364   1.638
23785W        W65796   0.099  21.381   3.332
23786W        W65797   7.189  19.794   3.542
23787W        W65798   9.769  12.194   3.822
23788W        W65799  13.459  23.861   8.332
23789W        W65800  20.079  11.084  15.462
23790W        W65801  13.889  25.191   9.362
23791W        W65802  20.639  24.761  10.612
23792W        W65803  13.449  16.384   0.398
23793W        W65804   9.159   4.594   2.742
23794W        W65805   6.899  21.931   2.378
23795W        W65806  11.279  24.941  11.052
23796W        W65807  25.439   5.634   7.262
23797W        W65808   2.429  11.404   1.858
23798W        W65809   0.059  18.144   3.452
23799W        W65810   3.219   0.584   0.348
23800W        W65811   2.499  20.004   9.742
23801W        W65812  19.379  12.884   2.922
23802W        W65813   1.269  17.124   2.458
23803W        W65814   8.049  23.491   7.962
23804W        W65815  14.399  18.774  10.292
23805W        W65816  14.389  21.421   4.372
23806W        W65817  18.849  21.044   1.068
23807W        W65818  15.049  22.151   1.228
23808W        W65819  19.189   7.024   1.698
23809W        W65820  24.759  10.914  11.002
23810W        W65821   3.459  14.134   1.758
23811W        W65822   5.819  22.871   9.822
23812W        W65823   6.309   3.024  10.042
23813W        W65824  14.099   9.294   4.822
23814W        W65825  20.949   0.044   2.932
23815W        W65826   0.339   2.394   9.002
23816W        W65827   7.009   1.264   1.828
23817W        W65828  22.799  24.461  10.312
23818W        W65829  11.779  16.334   9.392
23819W        W65830  24.739  18.454   3.772
23820W        W65831   9.189  24.881   8.902
23821W        W65832  21.549  24.101   3.372
23822W        W65833  23.669   3.784   0.178
23823W        W65834  18.229  13.584   1.088
23824W        W65835  24.059  20.894   9.302
23825W        W65836  24.379  25.501   1.028
23826W        W65837  16.129  11.274   8.822
23827W        W65838  16.549   5.494   0.668
23828W        W65839   9.529   9.384   9.562
23829W        W65840  16.089  18.094   3.312
23830W        W65841  21.109  11.404   9.552
23831W        W65842  24.599   4.614   1.468
23832W        W65843  11.819  23.211  10.962
23833W        W65844   1.309  19.244   9.592
23834W        W65845  11.549   7.874   4.382
23835W        W65846  15.849  14.954   1.338
23836W        W65847   4.289  13.464   9.122
23837W        W65848  20.559   5.354   1.658
23838W        W65849  14.529   0.714  11.232
23839W        W65850  14.819  21.951  10.462
23840W        W65851   7.789   6.384  14.202
23841W        W65852  18.009  24.891   0.918
23842W        W65853  16.499  19.834  10.662
23843W        W65854   9.699  23.231   8.892
23844W        W65855   9.089   1.504   8.362
23845W        W65856  18.619  13.034   1.478
23846W        W65857   6.069  15.954   2.542
23847W        W65858  13.319   9.294   1.248
23848W        W65859  16.699  21.781   3.262
23849W        W65860  12.259  24.881   2.802
23850W        W65861  23.059   3.354   8.202
23851W        W65862   5.049  22.451   2.208
23852W        W65863  13.309  25.521   4.052
23853W        W65864  20.619  10.594   0.358
23854W        W65865  14.119   7.744   4.242
23855W        W65866   8.199  25.371  15.782
23856W        W65867  10.209  22.391   2.782
23857W        W65868  18.669  15.474   8.652
23858W        W65869   6.279   5.814   3.092
23859W        W65870  19.809  10.374   3.042
23860W        W65871  24.839   2.864   1.798
23861W        W65872  23.609   9.384   8.512
23862W        W65873   7.149   2.904   9.632
23863W        W65874  13.499   4.544  15.712
23864W        W65875  15.959  16.194   0.968
23865W        W65876   2.149   6.594  15.732
23866W        W65877   6.329  20.224   3.492
23867W        W65878   5.429  19.644  10.592
23868W        W65879  24.249  24.811   8.762
23869W        W65880  18.059  10.824   2.862
23870W        W65881  16.889  20.244   9.812
23871W        W65882   5.539  12.384   8.922
23872W        W65883   7.489  21.931  15.712
23873W        W65884  19.859   4.914  10.772
23874W        W65885   2.809  15.894   3.042
23875W        W65886  23.599  24.681  10.122
23876W        W65887  13.569  15.074  15.702
23877W        W65888  21.729  13.074  14.862
23878W        W65889  13.929   5.494   7.972
23879W        W65890   2.699  23.551   8.232
23880W        W65891  10.199  17.404   2.792
23881W        W65892  19.719  11.784   2.692
23882W        W65893  20.789   2.884  11.682
23883W        W65894  19.309   1.614   2.498
23884W        W65895  12.659   7.384  10.362
23885W        W65896  21.209  13.004  10.262
23886W        W65897  14.139  13.684  14.162
23887W        W65898  24.539   2.364   9.902
23888W        W65899  11.149  19.624  10.752
23889W        W65900  20.979  13.804   1.708
23890W        W65901   2.339  18.484  10.902
23891W        W65902   2.079   5.944  10.772
23892W        W65903  18.189   3.734   8.732
23893W        W65904   2.089  24.651  15.852
23894W        W65905  18.189  12.654   2.652
23895W        W65906  11.169   6.244   1.348
23896W        W65907  20.589  16.754  10.272
23897W        W65908  10.979   0.154   9.332
23898W        W65909   0.479   5.764   1.198
23899W        W65910   9.969  24.181   8.432
23900W        W65911   6.479  18.914   3.312
23901W        W65912  14.439  21.541   2.198
23902W        W65913  24.199  23.331   2.512
23903W        W65914   4.069   1.014   9.082
23904W        W65915  16.909   6.064   0.928
23905W        W65916  13.579   9.354   4.162
23906W        W65917  15.939  22.901   1.678
23907W        W65918   4.909   1.994   1.108
23908W        W65919  25.379   4.644  11.482
23909W        W65920  16.749  13.284   0.088
23910W        W65921  17.429   6.074   1.168
23911W        W65922  17.569  10.764   0.288
23912W        W65923   7.289  22.041   2.682
23913W        W65924  13.269  17.754  11.402
23914W        W65925  24.799   2.894   0.438
23915W        W65926   0.929   1.634   0.648
23916W        W65927   3.709   2.634   1.398
23917W        W65928   1.999   6.834   6.862
23918W        W65929  23.019   6.704   3.462
23919W        W65930  18.499   0.444   9.142
23920W        W65931  15.049  23.411   9.542
23921W        W65932  16.429   2.994   0.558
23922W        W65933   4.879   2.064  10.102
23923W        W65934  25.309   1.474   3.272
23924W        W65935   8.199  25.411   2.702
23925W        W65936  23.439  23.571   8.092
23926W        W65937   9.809  17.354  15.032
23927W        W65938  24.239   9.184  15.302
23928W        W65939   7.049  24.131  11.092
23929W        W65940  10.329   0.984   8.312
23930W        W65941  24.749   3.414  11.312
23931W        W65942  17.899  18.744   9.842
23932W        W65943  16.359  23.971  10.072
23933W        W65944  10.509   9.654   9.712
23934W        W65945  21.399  20.454   9.362
23935W        W65946  17.659   0.154  12.072
23936W        W65947  22.569  11.154   7.072
23937W        W65948  11.079  12.414   3.112
23938W        W65949  21.509  14.424   7.912
23939W        W65950  18.629   1.184  10.262
23940W        W65951  11.359   5.864   1.728
23941W        W65952  12.299   6.294   4.052
23942W        W65953   4.119   9.164   0.748
23943W        W65954  14.349  12.894   3.952
23944W        W65955  13.609  22.881   1.118
23945W        W65956   5.289   2.464   7.492
23946W        W65957  17.549   3.494   2.048
23947W        W65958  17.869  10.334   0.048
23948W        W65959  16.669  18.624   1.558
23949W        W65960  12.779  22.401   0.908
23950W        W65961  20.909  16.184   3.342
23951W        W65962  18.039   1.044   8.722
23952W        W65963   8.779   6.174  14.352
23953W        W65964  18.219   6.134   8.872
23954W        W65965  25.519  19.104  15.442
23955W        W65966  16.509  16.004  14.562
23956W        W65967   9.919   8.094   1.198
23957W        W65968  21.209  14.334   3.052
23958W        W65969  24.319  12.874  15.752
23959W        W65970   9.889  24.591  11.552
23960W        W65971  18.589  11.924  10.702
23961W        W65972  16.139  21.561   8.722
23962W        W65973   2.049   4.334   2.498
23963W        W65974  20.529  18.634   3.182
23964W        W65975   1.239  17.534   2.812
23965W        W65976  23.929  16.054   1.518
23966W        W65977  21.369   7.754   6.772
23967W        W65978   0.119  17.624  10.212
23968W        W65979   0.549  10.304   8.592
23969W        W65980  16.419  15.514   2.108
23970W        W65981  21.129  23.421   3.062
23971W        W65982  16.079  19.824   2.078
23972W        W65983   9.629  19.354  11.562
23973W        W65984  14.749  13.074  15.152
23974W        W65985  24.289   2.584   8.802
23975W        W65986  24.499   8.994   2.458
23976W        W65987  18.109  10.144   8.912
23977W        W65988  24.649   4.254   7.422
23978W        W65989  20.419   9.584  10.632
23979W        W65990  20.559   9.764   8.332
23980W        W65991  16.849  22.021   9.962
23981W        W65992  19.539  12.224   2.822
23982W        W65993  11.919   6.884   3.442
23983W        W65994  22.319   1.214   1.128
23984W        W65995   3.229  17.944   3.572
23985W        W65996   4.599  14.244   9.522
23986W        W65997   6.699  23.621   9.352
23987W        W65998  12.269  14.654   4.212
23988W        W65999  19.689   0.734   3.142
23989W        W66000  16.629   9.054   3.432
23990W        W66001   1.059  16.194   0.008
23991W        W66002  19.929   2.554   0.568
23992W        W66003  19.609  23.351   1.048
23993W        W66004  11.089  14.724   0.918
23994W        W66005   8.789   4.564  14.422
23995W        W66006   0.689   7.794   2.178
23996W        W66007   4.369   8.194   9.822
23997W        W66008  10.929   6.694   0.088
23998W        W66009  13.499   2.534   1.628
23999W        W66010   7.089  23.121   2.068
24000W        W66011   0.809   1.984   9.702
24001W        W66012  21.389  14.684  10.272
24002W        W66013   3.239   6.974   6.392
24003W        W66014  11.339   8.964   3.092
24004W        W66015   4.759   1.054   1.278
24005W        W66016  15.589   1.394   2.388
24006W        W66017   2.509  16.214   1.778
24007W        W66018   6.629  19.174  11.552
24008W        W66019  24.169  10.194   1.818
24009W        W66020  22.209  21.024   9.102
24010W        W66021  19.319  16.914   9.462
24011W        W66022  14.069  20.194   4.392
24012W        W66023  15.879  11.234   2.642
24013W        W66024  15.619   4.614   0.228
24014W        W66025   9.129  21.811   8.742
24015W        W66026  17.669   6.754   9.332
24016W        W66027  19.159   0.634   4.082
24017W        W66028  18.009   7.124   0.268
24018W        W66029  23.499  22.531  10.232
24019W        W66030  18.279   7.604  14.592
24020W        W66031  19.009  24.971   0.108
24021W        W66032  12.479  21.681   2.522
24022W        W66033  17.419   9.404   3.242
24023W        W66034  24.699  20.844  10.282
24024W        W66035   2.329  22.581   2.168
24025W        W66036  15.129  21.004  10.542
24026W        W66037   5.069   3.264   7.812
24027W        W66038  16.029   0.394   0.118
24028W        W66039  14.099  14.974   9.552
24029W        W66040  21.599   5.034   1.508
24030W        W66041  21.859  20.894   2.218
24031W        W66042  21.509   8.384   8.762
24032W        W66043  10.769  17.794   4.472
24033W        W66044   3.869  10.834  11.212
24034W        W66045  23.299  15.304   3.922
24035W        W66046   5.289  20.464   2.318
24036W        W66047  12.019  13.934   4.092
24037W        W66048   1.729  20.944   7.862
24038W        W66049   2.769   5.604  11.392
24039W        W66050  21.579   8.444   1.468
24040W        W66051   0.149  16.814  15.832
24041W        W66052  12.329   6.944   8.792
24042W        W66053  18.199  12.514   2.128
24043W        W66054   1.149   9.844   0.608
24044W        W66055  25.029  16.814   7.122
24045W        W66056  18.119   5.304  11.092
24046W        W66057  16.869   6.734   9.702
24047W        W66058  18.159  15.954   7.422
24048W        W66059  22.589   7.514  10.952
24049W        W66060  21.999   4.894  15.252
24050W        W66061  20.029  16.704   9.542
24051W        W66062  22.619  22.911   8.252
24052W        W66063  10.519  23.881   1.248
24053W        W66064  21.819  10.984  10.192
24054W        W66065  15.669  12.764   9.912
24055W        W66066   1.129   4.614   1.028
24056W        W66067  12.069   9.094  14.822
24057W        W66068  10.089   9.854   8.772
24058W        W66069  20.839  24.361  12.952
24059W        W66070  24.339  12.514   2.682
24060W        W66071   6.729  14.104   0.108
24061W        W66072  22.119  12.424  11.662
24062W        W66073  17.609   4.184   0.328
24063W        W66074  24.659  25.461   2.972
24064W        W66075   2.139  22.211   0.818
24065W        W66076   8.239   9.774  14.692
24066W        W66077  19.219   8.334   8.952
24067W        W66078  14.699  20.274   1.438
24068W        W66079  13.409  12.704   2.028
24069W        W66080  21.559  22.851  11.192
24070W        W66081   6.219  13.104  11.022
24071W        W66082   6.439   8.034   8.802
24072W        W66083  24.899  21.651   1.218
24073W        W66084  20.269  10.834   0.058
24074W        W66085   0.021   9.634   0.658
24075W        W66086  20.889  18.574   8.702
24076W        W66087   2.579  18.994   8.922
24077W        W66088  12.869  22.001   2.612
24078W        W66089   8.169  16.934   7.792
24079W        W66090   0.959   2.464   9.762
24080W        W66091   2.529   4.364   9.052
24081W        W66092  19.399  25.331   0.668
24082W        W66093  13.119   9.744   3.422
24083W        W66094  20.649   3.724   9.412
24084W        W66095  16.869  20.404   2.068
24085W        W66096  21.939  19.794   4.282
24086W        W66097  16.659  11.324   8.942
24087W        W66098   7.389  24.081   3.372
24088W        W66099  20.609  12.674   1.388
24089W        W66100  17.389  19.184   1.848
24090W        W66101  12.419   1.074  14.222
24091W        W66102  19.359   7.914  15.322
24092W        W66103  20.189  15.044   7.732
24093W        W66104   3.519  24.621   3.072
24094W        W66105  15.329   4.524  14.842
24095W        W66106  14.569   6.654   8.642
24096W        W66107  10.319   2.134  10.332
24097W        W66108  20.239   6.334   3.362
24098W        W66109  24.099  24.071   2.942
24099W        W66110   7.409  20.144   9.562
24100W        W66111  15.489  16.914  10.042
24101W        W66112   0.229   0.494   1.998
24102W        W66113   2.789  15.044   3.562
24103W        W66114   3.719  18.494  10.442
24104W        W66115  13.779  18.534  15.052
24105W        W66116   3.029  10.704  11.712
24106W        W66117   4.059   5.084  11.082
24107W        W66118  13.669   8.184   8.832
24108W        W66119   5.549  21.961   1.648
24109W        W66120  18.929   6.314   0.558
24110W        W66121  13.699  17.244   2.602
24111W        W66122   3.199   5.854   8.022
24112W        W66123  15.269   0.924   3.162
24113W        W66124  22.959  14.274   8.132
24114W        W66125   1.639  17.364   0.358
24115W        W66126   9.149   7.814  14.752
24116W        W66127   2.289   5.324  14.862
24117W        W66128  16.959  20.374   1.338
24118W        W66129   1.589   3.074   2.572
24119W        W66130  13.399   0.664  11.282
24120W        W66131   7.649  17.004   8.782
24121W        W66132  15.269   4.614   1.168
24122W        W66133  23.849  16.654   9.552
24123W        W66134  21.199   3.594  10.042
24124W        W66135  15.649  16.564   9.692
24125W        W66136  11.689  10.724   3.782
24126W        W66137  25.309  19.944   0.218
24127W        W66138   1.759  17.344  10.472
24128W        W66139   1.199   1.504   2.228
24129W        W66140   8.619  15.064   9.742
24130W        W66141  15.009  12.754   9.412
24131W        W66142  22.649  20.554   3.932
24132W        W66143   5.979  20.664  12.082
24133W        W66144   0.219   6.054   8.232
24134W        W66145  21.159  18.104   8.512
24135W        W66146  12.609  22.091  10.672
24136W        W66147  12.409   6.584  11.342
24137W        W66148   4.049  12.494  10.562
24138W        W66149   3.789  24.251   0.508
24139W        W66150  17.939  13.374   3.092
24140W        W66151  13.889   9.824   2.378
24141W        W66152  12.039  24.731   1.468
24142W        W66153  22.429  23.361   3.052
24143W        W66154   7.069  11.524  14.722
24144W        W66155  18.559  21.164   7.962
24145W        W66156   1.049  24.251  10.482
24146W        W66157   5.519   1.914   8.182
24147W        W66158  17.879  20.414   1.018
24148W        W66159  21.629  24.711   1.568
24149W        W66160   3.429  22.591   3.502
24150W        W66161   9.259   6.134   9.332
24151W        W66162  24.129   1.324  15.532
24152W        W66163  21.259  16.534  11.342
24153W        W66164  18.619   9.664  10.212
24154W        W66165  20.999   6.904   8.362
24155W        W66166  24.279  10.944  10.602
24156W        W66167  24.489   8.264  10.412
24157W        W66168  18.449  18.594   9.492
24158W        W66169  22.179   2.254   0.988
24159W        W66170  25.129  12.594   3.392
24160W        W66171   9.369  14.374   2.682
24161W        W66172   5.909   6.354   9.422
24162W        W66173  10.869  19.604   1.358
24163W        W66174  22.049   1.744   1.048
24164W        W66175  17.669  21.124   7.522
24165W        W66176  15.169  20.874   1.848
24166W        W66177  20.479   6.124   9.372
24167W        W66178  20.309  14.944   9.542
24168W        W66179   4.819  22.711  15.442
24169W        W66180   3.729  17.694   0.648
24170W        W66181  11.139  13.704   9.502
24171W        W66182  23.229   6.994  11.062
24172W        W66183  13.509  21.174   9.012
24173W        W66184  12.289   3.734  14.402
24174W        W66185   7.809   2.464   2.792
24175W        W66186  17.849  15.724   1.998
24176W        W66187  16.209   7.234   0.878
24177W        W66188  21.229   7.284  11.212
24178W        W66189   2.399  18.494  11.402
24179W        W66190  14.759  20.174  11.042
24180W        W66191   5.039  21.431   8.982
24181W        W66192   3.739  23.481   7.922
24182W        W66193   7.579  19.204   9.752
24183W        W66194   9.089  18.084  10.672
24184W        W66195  16.759  22.971   1.708
24185W        W66196  11.119  17.704  15.382
24186W        W66197  16.209  23.681  15.392
24187W        W66198   1.959   8.034   8.692
24188W        W66199   3.669  13.854   3.112
24189W        W66200  15.119  25.541   9.962
24190W        W66201  11.859  13.474  14.202
24191W        W66202  16.239   7.304   1.398
24192W        W66203   8.249   2.054   1.998
24193W        W66204   0.589   1.894   1.628
24194W        W66205  14.579  18.014  10.212
24195W        W66206   0.449   1.974   2.088
24196W        W66207   4.879   9.574   1.838
24197W        W66208   9.719   8.024   0.608
24198W        W66209   9.069  15.244   8.612
24199W        W66210   7.659  22.591  11.612
24200W        W66211   7.469   3.294   3.362
24201W        W66212  23.749  17.844   8.502
24202W        W66213   3.199  19.554   2.038
24203W        W66214  17.289  23.421  11.122
24204W        W66215  23.389   0.624   7.242
24205W        W66216  10.579   1.104  10.452
24206W        W66217  11.069   2.294   3.242
24207W        W66218   1.909  20.564  10.122
24208W        W66219   0.041  21.801   0.898
24209W        W66220   7.459   2.894  10.342
24210W        W66221  25.309  11.304   2.138
24211W        W66222  20.389  22.131   9.202
24212W        W66223   7.529  10.224  15.372
24213W        W66224  18.559   7.854   4.262
24214W        W66225   8.099  15.584   2.642
24215W        W66226  22.309  20.384   2.108
24216W        W66227   9.139   6.324  11.192
24217W        W66228  17.639  23.851   2.328
24218W        W66229  12.839   0.634   2.098
24219W        W66230   5.669  18.174   3.732
24220W        W66231  20.909  20.134   8.282
24221W        W66232  13.269   5.594   9.762
24222W        W66233  22.649   6.914   8.992
24223W        W66234   8.679   6.704   8.882
24224W        W66235  19.689   4.554   1.778
24225W        W66236  14.559  14.224  10.622
24226W        W66237   1.059  22.301  10.392
24227W        W66238  11.919  23.161  11.852
24228W        W66239  18.939   9.144   0.408
24229W        W66240   2.219   6.924   1.198
24230W        W66241  24.559  22.001  15.862
24231W        W66242  24.239   0.294   2.498
24232W        W66243   2.439  24.371  11.762
24233W        W66244   4.929  16.894  10.922
24234W        W66245   9.679  18.914   9.132
24235W        W66246  17.919  15.614   3.232
24236W        W66247  19.319   5.614   0.858
24237W        W66248  19.939   9.244   2.228
24238W        W66249   8.079  10.194   4.452
24239W        W66250   7.379   2.554  10.002
24240W        W66251  18.579   9.474   3.482
24241W        W66252   3.799  16.324   8.312
24242W        W66253  14.849  17.144   8.792
24243W        W66254  12.829  13.084   1.368
24244W        W66255   0.929  25.351   9.702
24245W        W66256   0.629  18.394   0.528
24246W        W66257  10.469   3.054   3.652
24247W        W66258  24.069  14.144   0.538
24248W        W66259  25.499   3.874   0.828
24249W        W66260  20.629   7.344  14.992
24250W        W66261   7.739   0.544   7.842
24251W        W66262  24.149   8.634   0.248
24252W        W66263   1.129  20.934   9.872
24253W        W66264  24.529   7.444   2.692
24254W        W66265   0.759  16.094   9.862
24255W        W66266  11.609   1.794   3.302
24256W        W66267  23.939  13.104   0.088
24257W        W66268   9.629  16.074   9.532
24258W        W66269  15.849   9.804   2.982
24259W        W66270  18.449  14.014   8.832
24260W        W66271   2.009  23.571   2.128
24261W        W66272  11.129   9.974   2.592
24262W        W66273   7.079  24.961  10.912
24263W        W66274   0.439  25.131   8.782
24264W        W66275   2.059   2.124   7.762
24265W        W66276  14.249  21.711   8.692
24266W        W66277  23.149  10.434  10.452
24267W        W66278   6.179  20.614   0.618
24268W        W66279  22.039  22.631   2.218
24269W        W66280  19.389  21.421   7.272
24270W        W66281  14.289   3.404  15.562
24271W        W66282   9.099  13.644  15.022
24272W        W66283   4.169   9.224   8.032
24273W        W66284  14.119  18.584  10.652
24274W        W66285  12.769   8.054   3.702
24275W        W66286  19.649   7.784   4.222
24276W        W66287  15.649   3.174   2.378
24277W        W66288  11.899   7.894   7.912
24278W        W66289  22.919   3.234  15.142
24279W        W66290  20.649  10.974   2.852
24280W        W66291  24.829  16.174   3.082
24281W        W66292   7.969  12.634   3.252
24282W        W66293  21.129  19.034  11.932
24283W        W66294  11.849   6.404   3.692
24284W        W66295  18.599   2.724   0.018
24285W        W66296  13.619   9.854   0.108
24286W        W66297  12.519  10.294  15.642
24287W        W66298  18.039   9.304   2.098
24288W        W66299  13.139   9.364  14.942
24289W        W66300   2.309   1.074   2.562
24290W        W66301  21.369  19.664  11.292
24291W        W66302  13.419  24.381   0.778
24292W        W66303  13.559  18.304   9.772
24293W        W66304  19.149   8.814  10.212
24294W        W66305  13.869   0.744   0.098
24295W        W66306  20.839  17.284  10.172
24296W        W66307  21.499   0.934  15.782
24297W        W66308  18.519  13.484   8.842
24298W        W66309   9.979  12.134   3.012
24299W        W66310  24.339  10.064  10.462
24300W        W66311  22.079  21.334  10.202
24301W        W66312   1.699   2.704  10.392
24302W        W66313  21.589  16.874   3.072
24303W        W66314  14.209   1.104   7.832
24304W        W66315  15.239  14.534   8.812
24305W        W66316  13.889  22.081  15.002
24306W        W66317  17.529  20.974   9.602
24307W        W66318   8.199  16.454   3.842
24308W        W66319  13.919   6.664   9.832
24309W        W66320   9.119  10.634   3.402
24310W        W66321  10.069  19.594   0.788
24311W        W66322  17.129   1.924  10.432
24312W        W66323   3.209  11.124   7.572
24313W        W66324  14.779  17.014  10.812
24314W        W66325   3.669  21.781   7.242
24315W        W66326   0.389   9.594   9.652
24316W        W66327   9.869   9.464  13.952
24317W        W66328  19.159  19.304   2.812
24318W        W66329  22.139  21.411   2.862
24319W        W66330   5.769   1.624   2.468
24320W        W66331  12.669  18.344  15.192
24321W        W66332  25.009   5.664   9.502
24322W        W66333  13.279  25.231   4.462
24323W        W66334  22.289   1.474  10.362
24324W        W66335  17.629  16.444   2.478
24325W        W66336  24.939  17.534  10.912
24326W        W66337  16.779  15.734   0.528
24327W        W66338   4.629  15.674  11.372
24328W        W66339   8.029  23.441   9.872
24329W        W66340   5.519  23.691  15.362
24330W        W66341  15.869  13.244   9.902
24331W        W66342  21.149  14.894   7.952
24332W        W66343  16.719  12.644  15.122
24333W        W66344   6.289  16.734   9.772
24334W        W66345   9.649   6.664  15.482
24335W        W66346  10.029  22.781   4.282
24336W        W66347   0.319   6.314   7.772
24337W        W66348  22.509  19.894   8.182
24338W        W66349   4.849  10.184   2.952
24339W        W66350  23.899  16.364   3.432
24340W        W66351  20.129  14.434   1.618
24341W        W66352   7.079   1.024   0.548
24342W        W66353   6.919  18.064   0.078
24343W        W66354  11.459  13.724  15.402
24344W        W66355  17.569  14.164   9.832
24345W        W66356   6.219  10.714   1.658
24346W        W66357   0.899   3.154   1.568
24347W        W66358   9.079  19.874   2.572
24348W        W66359  16.119  15.414  15.342
24349W        W66360   3.689  13.824   0.568
24350W        W66361  23.659  12.974   3.272
24351W        W66362  25.149  12.954   0.558
24352W        W66363  14.929  20.404   0.988
24353W        W66364  10.419   3.204   9.272
24354W        W66365   6.789   3.234  15.232
24355W        W66366  22.579  22.921  12.272
24356W        W66367   0.459  12.944  10.382
24357W        W66368   0.819   6.364  15.322
24358W        W66369  11.559  16.864  10.372
24359W        W66370   8.879  17.324  10.312
24360W        W66371  13.669  14.254  10.052
24361W        W66372  25.559   1.514   9.842
24362W        W66373  16.549  10.454  10.652
24363W        W66374   9.779  11.774   1.038
24364W        W66375   6.059   2.614   8.552
24365W        W66376   2.009  24.451   1.548
24366W        W66377   1.009  15.694   8.702
24367W        W66378  12.269  15.174  15.072
24368W        W66379  12.749   5.264  14.692
24369W        W66380  10.119   9.964   9.602
24370W        W66381  10.789   5.304   4.102
24371W        W66382  20.029   4.524   2.692
24372W        W66383  16.589   6.104   2.248
24373W        W66384  20.009   6.984   8.802
24374W        W66385   6.719   0.224   2.468
24375W        W66386  24.009  12.484  11.792
24376W        W66387  17.579  17.194  10.912
24377W        W66388  20.569   1.564   1.788
24378W        W66389   8.229  17.124   8.812
24379W        W66390   1.259  11.184   1.368
24380W        W66391  22.819   9.264   0.048
24381W        W66392  20.239  12.294  10.882
24382W        W66393  24.309  10.174   0.638
24383W        W66394   8.889   5.874  15.322
24384W        W66395   7.009   2.274  10.342
24385W        W66396  10.009  20.544   1.148
24386W        W66397  11.099   1.984  11.002
24387W        W66398   2.009  15.544   0.598
24388W        W66399  25.269  15.424   8.962
24389W        W66400  17.849  24.601   9.082
24390W        W66401   2.659  13.324   7.722
24391W        W66402   2.059   1.004   0.418
24392W        W66403   4.379  24.311   2.338
24393W        W66404  12.999   4.224   0.288
24394W        W66405   3.539  10.844  10.062
24395W        W66406   2.719   2.574   2.238
24396W        W66407   2.419  24.061  15.072
24397W        W66408  16.989  21.164  11.962
24398W        W66409  13.439  12.054   3.302
24399W        W66410  20.809   6.814   1.198
24400W        W66411  15.739   3.054  10.482
24401W        W66412  13.709  25.531  10.732
24402W        W66413  12.879  24.891   2.922
24403W        W66414  18.829  11.414  11.252
24404W        W66415   6.899  10.474   0.958
24405W        W66416   9.809   6.154   0.428
24406W        W66417  16.939  12.894   7.962
24407W        W66418   5.959  14.694   0.378
24408W        W66419  14.859  18.564  11.462
24409W        W66420   1.679  10.674   3.152
24410W        W66421   9.889  17.754   8.262
24411W        W66422  18.619   1.514   9.462
24412W        W66423  15.709   5.554   1.588
24413W        W66424   5.439  19.174   1.638
24414W        W66425  21.899  19.204   2.642
24415W        W66426  12.529  18.024   2.288
24416W        W66427  22.329  17.114  11.272
24417W        W66428  14.839   1.004   8.412
24418W        W66429   4.489   9.634   8.672
24419W        W66430   9.559  21.324   3.052
24420W        W66431  20.309  22.701   0.228
24421W        W66432   9.489  20.194   2.418
24422W        W66433   8.459   0.444  10.252
24423W        W66434   1.739  11.984  10.272
24424W        W66435   5.319   1.764  10.882
24425W        W66436  22.889  22.451   7.522
24426W        W66437  23.949   4.504  15.112
24427W        W66438  15.549  18.074   3.292
24428W        W66439   9.009  15.864   1.678
24429W        W66440   2.249  14.134   0.678
24430W        W66441  23.529  20.104   0.938
24431W        W66442  15.109  18.704   2.562
24432W        W66443  25.369  18.924   1.358
24433W        W66444  18.209   4.114   2.208
24434W        W66445  21.599  15.834   8.892
24435W        W66446   2.099   2.754   0.578
24436W        W66447   4.869   6.384   0.168
24437W        W66448  14.599   6.474   9.252
24438W        W66449  16.759  15.624   9.892
24439W        W66450   9.729  17.394   9.232
24440W        W66451  16.399  11.984   4.252
24441W        W66452  19.649   2.464   2.288
24442W        W66453  24.739  23.931  11.222
24443W        W66454   7.329  20.854  15.702
24444W        W66455   6.379  15.004   0.998
24445W        W66456  23.029   9.504  10.282
24446W        W66457  25.449  24.881   7.982
24447W        W66458  22.199  25.231   2.348
24448W        W66459   8.589  15.624  10.432
24449W        W66460  15.279   2.974   9.702
24450W        W66461   1.229  11.604  10.592
24451W        W66462   4.429   6.754   0.248
24452W        W66463  13.669   0.254   7.542
24453W        W66464  11.079   9.614   1.468
24454W        W66465  20.019   1.364  10.552
24455W        W66466  14.649  23.181   2.742
24456W        W66467  15.989  25.251  10.592
24457W        W66468  13.799   4.444   0.738
24458W        W66469   8.069  24.831   1.838
24459W        W66470   5.179   7.684  10.082
24460W        W66471  12.069  22.551   2.058
24461W        W66472  19.939   1.884   2.358
24462W        W66473  21.039  18.884   0.358
24463W        W66474   6.759  14.244   2.932
24464W        W66475  18.449  17.134  11.422
24465W        W66476   8.259  10.324   2.582
24466W        W66477  12.029   7.694   1.468
24467W        W66478  16.489   7.264   4.072
24468W        W66479  16.219  12.824   9.982
24469W        W66480  17.139   2.984   8.092
24470W        W66481  13.579  13.214   2.098
24471W        W66482  23.799   6.804   4.072
24472W        W66483  15.089  12.624   3.182
24473W        W66484  11.539  19.464   8.502
24474W        W66485   5.589   9.184   0.788
24475W        W66486   9.679  17.934  11.002
24476W        W66487   5.299  24.941  10.182
24477W        W66488  21.389  14.004   3.492
24478W        W66489  23.669   6.334   0.348
24479W        W66490   4.299   6.594   6.842
24480W        W66491  16.939   6.934  10.642
24481W        W66492  22.549  21.971   8.812
24482W        W66493  21.999  17.634  10.592
24483W        W66494  19.329  14.924   9.422
24484W        W66495   8.169  13.794  14.232
24485W        W66496  23.689  10.714   1.158
24486W        W66497  18.679  14.744   3.482
24487W        W66498   9.309   8.344   2.742
24488W        W66499   0.329  22.831  11.882
24489W        W66500  11.479  11.254   4.622
24490W        W66501  16.099   7.834   8.612
24491W        W66502  10.949  18.294   3.262
24492W        W66503   6.189  24.651   7.612
24493W        W66504  16.279  10.914   4.402
24494W        W66505  12.649  18.944   2.882
24495W        W66506   5.309  23.931   0.188
24496W        W66507   2.499   6.654   9.192
24497W        W66508  22.599  13.324   3.022
24498W        W66509  21.339  13.264   3.882
24499W        W66510   8.509  21.174   0.498
24500W        W66511  23.889  13.334  12.172
24501W        W66512   0.779   6.804   9.792
24502W        W66513  19.869  18.194   3.522
24503W        W66514  23.169  25.451  10.672
24504W        W66515   6.969  11.514  11.352
24505W        W66516   8.709  24.511   0.858
24506W        W66517  12.989   4.364  10.332
24507W        W66518  17.489  24.271   9.432
24508W        W66519  10.459  14.864   9.122
24509W        W66520  17.859  13.114   9.012
24510W        W66521   0.929  11.644  10.212
24511W        W66522  24.499  21.451   1.998
24512W        W66523  12.699   1.404   1.758
24513W        W66524   0.549   6.654   1.608
24514W        W66525  24.379  22.391  10.082
24515W        W66526  13.199   4.324   9.502
24516W        W66527  23.299   2.964   9.042
24517W        W66528  22.389  12.194   0.908
24518W        W66529  10.119  14.954   1.618
24519W        W66530  17.159  24.241   1.138
24520W        W66531   2.649   3.584   1.228
24521W        W66532  22.529  11.494  11.702
24522W        W66533   3.629   1.204  10.652
24523W        W66534  14.529  14.934   9.282
24524W        W66535  15.479  24.691  10.012
24525W        W66536   0.819  22.531   2.632
24526W        W66537   9.579  17.954   0.688
24527W        W66538   5.189  20.234   2.752
24528W        W66539  11.439   3.014   3.832
24529W        W66540   1.209  23.041  11.502
24530W        W66541   6.599   5.924  10.102
24531W        W66542  22.129  20.384  11.342
24532W        W66543   6.519   4.734   8.242
24533W        W66544  17.629  12.114   1.378
24534W        W66545  20.779   7.674  11.392
24535W        W66546  13.539  14.764  15.172
24536W        W66547   9.429  24.061   3.722
24537W        W66548  20.909  16.094   9.832
24538W        W66549  15.529  24.041  10.862
24539W        W66550   5.819  16.394   0.138
24540W        W66551   2.049   3.344  10.862
24541W        W66552  13.119   3.624  10.222
24542W        W66553  13.489  14.474  15.692
24543W        W66554  19.659   7.244   8.132
24544W        W66555  21.699  24.981  11.852
24545W        W66556   9.289  14.744   9.942
24546W        W66557  11.909  14.594   4.752
24547W        W66558  25.109   2.244   7.622
24548W        W66559   2.529   9.244  11.212
24549W        W66560  12.089  25.531   3.162
24550W        W66561   0.999  23.941  11.712
24551W        W66562   8.099  23.331   9.372
24552W        W66563  16.439   9.894  10.132
24553W        W66564   7.119   8.194   7.562
24554W        W66565  25.269  22.961   0.558
24555W        W66566  16.499   5.584   2.098
24556W        W66567  21.729  16.174   9.222
24557W        W66568   1.439   9.944   7.862
24558W        W66569   6.929  24.311   4.432
24559W        W66570  24.909   8.464   6.752
24560W        W66571  12.949  15.894   2.318
24561W        W66572   7.439  11.184   1.878
24562W        W66573  18.649  13.894   9.292
24563W        W66574   0.159  15.734  10.652
24564W        W66575   0.609  22.041  10.482
24565W        W66576  15.829  14.464   1.458
24566W        W66577  19.779  21.074  10.492
24567W        W66578   8.829   1.254  10.232
24568W        W66579  25.369  12.294  15.682
24569W        W66580   8.529   7.184   2.622
24570W        W66581  17.809   7.644   9.732
24571W        W66582   3.759  17.314   8.492
24572W        W66583  10.659  15.394   1.618
24573W        W66584  14.209  13.254   0.398
24574W        W66585  12.749   5.674   0.368
24575W        W66586  16.809  12.624  11.012
24576W        W66587   5.599  13.234   8.472
24577W        W66588   5.139   4.824   8.572
24578W        W66589   2.179  22.121   1.968
24579W        W66590   9.569  23.131   2.522
24580W        W66591   7.779   8.224   0.498
24581W        W66592  24.329  10.414   9.332
24582W        W66593  21.649  25.371  11.002
24583W        W66594   0.469   1.074   9.752
24584W        W66595  19.379   8.684   1.648
24585W        W66596   6.279  18.514   2.752
24586W        W66597  12.619  21.681   8.792
24587W        W66598  10.979  13.454   0.768
24588W        W66599  14.069  15.054  10.432
24589W        W66600  24.799  10.124   1.778
24590W        W66601   9.349  11.674  10.712
24591W        W66602   4.329   0.184  15.672
24592W        W66603  17.129  25.161   0.888
24593W        W66604   2.499  17.064   1.068
24594W        W66605   4.249  13.064   2.592
24595W        W66606  15.719  20.504  15.242
24596W        W66607  11.809   1.624   9.042
24597W        W66608  25.349  23.281   1.758
24598W        W66609  20.169   1.244   8.152
24599W        W66610  12.389  10.504   1.388
24600W        W66611  11.999   3.114  11.112
24601W        W66612   1.119  15.404  10.422
24602W        W66613   4.079   2.974   8.082
24603W        W66614   7.469  15.114  10.472
24604W        W66615   2.229   6.814  10.052
24605W        W66616  23.959   3.404   9.522
24606W        W66617   2.179   6.034   3.002
24607W        W66618  19.059  22.641  10.562
24608W        W66619  20.489   9.924   1.008
24609W        W66620  12.569  22.641   2.198
24610W        W66621  10.839  23.361   1.108
24611W        W66622   1.649   6.174  10.512
24612W        W66623   5.969  20.464   2.378
24613W        W66624  10.099  19.154   1.538
24614W        W66625  17.509  11.734   9.212
24615W        W66626   4.029  23.051   8.792
24616W        W66627   6.479  11.494   3.222
24617W        W66628  23.039  18.744   8.952
24618W        W66629   2.749  20.614  10.322
24619W        W66630   1.539   1.544  10.192
24620W        W66631  13.069   7.894   0.268
24621W        W66632  21.899  16.824   8.172
24622W        W66633  17.689  24.221  11.602
24623W        W66634  21.129   6.034  10.152
24624W        W66635   5.939  20.094   3.172
24625W        W66636   6.989  18.504  11.012
24626W        W66637  19.439   1.054   8.362
24627W        W66638  12.289   8.754   8.612
24628W        W66639   9.709  15.624   2.792
24629W        W66640   0.189   7.014   1.558
24630W        W66641  10.789   3.864   3.382
24631W        W66642  16.449   8.974  15.292
24632W        W66643  14.709  21.631   3.502
24633W        W66644  18.559  19.814   2.388
24634W        W66645   4.739   6.954   7.882
24635W        W66646  23.059  12.704   3.892
24636W        W66647   3.319  24.461  15.642
24637W        W66648  21.669  10.484   1.858
24638W        W66649  15.389  19.074   3.022
24639W        W66650   6.809  12.754   7.652
24640W        W66651  24.019  13.704   0.288
24641W        W66652   8.699  20.904  15.032
24642W        W66653   5.619  15.664   9.792
24643W        W66654  13.279  13.244   3.992
24644W        W66655   0.609  25.571   3.772
24645W        W66656  15.959  22.691  10.742
24646W        W66657  12.139  19.274  10.712
24647W        W66658   9.469  15.574   9.932
24648W        W66659  19.419  14.284  10.182
24649W        W66660   9.879  13.054   1.368
24650W        W66661  12.009   4.644   1.068
24651W        W66662   9.629   7.674   1.378
24652W        W66663   2.539   1.614  15.092
24653W        W66664  18.499  23.511   7.522
24654W        W66665  19.959  15.304   4.392
24655W        W66666  17.879   1.664   0.748
24656W        W66667   1.509   6.814   6.862
24657W        W66668  25.449  21.054   1.618
24658W        W66669  23.149  15.904   7.672
24659W        W66670   3.729  13.354   8.342
24660W        W66671  22.239  11.054  11.662
24661W        W66672  11.249   5.094   3.972
24662W        W66673  24.659  19.124   1.208
24663W        W66674   2.119   6.464   1.618
24664W        W66675   7.199   1.334  11.582
24665W        W66676  24.309  22.211   2.682
24666W        W66677  23.349   5.844   3.822
24667W        W66678  21.809   7.214   2.278
24668W        W66679   9.069   5.514   0.408
24669W        W66680  21.409   3.774   7.712
24670W        W66681  18.049  24.341   1.528
24671W        W66682   7.559  18.194   9.452
24672W        W66683   9.819  16.184   2.602
24673W        W66684   7.169   8.184   9.962
24674W        W66685  13.589  24.871   9.612
24675W        W66686  24.829   3.104  10.382
24676W        W66687  13.809  18.854   2.722
24677W        W66688   6.179  20.894   2.662
24678W        W66689  11.029  10.344  13.762
24679W        W66690   7.589   4.684   2.622
24680W        W66691   0.299   6.454   9.562
24681W        W66692   2.329   0.774  11.162
24682W        W66693  18.069   5.924   4.162
24683W        W66694  14.839  14.004   1.238
24684W        W66695  23.949  22.561   1.568
24685W        W66696  13.769   6.404   2.388
24686W        W66697   1.459   1.894   1.238
24687W        W66698  13.299  22.851  10.092
24688W        W66699  15.939   3.754   3.132
24689W        W66700  24.819  13.264   9.762
24690W        W66701  22.089  20.704   0.858
24691W        W66702  25.429  14.254   1.838
24692W        W66703  20.299   7.384  15.492
24693W        W66704  17.959  13.994   8.792
24694W        W66705  11.129   3.284   1.978
24695W        W66706   5.019  16.534  15.822
24696W        W66707   8.069  24.051   2.248
24697W        W66708  20.519   8.264   8.182
24698W        W66709  12.439   5.784  11.092
24699W        W66710  21.479  20.064   0.888
24700W        W66711  21.109  14.044   8.602
24701W        W66712  23.079   3.304   2.018
24702W        W66713  23.509  21.431   3.492
24703W        W66714  18.959  13.214   2.902
24704W        W66715  15.109  12.954  15.862
24705W        W66716   7.469   7.004   1.548
24706W        W66717  20.249  18.064   8.242
24707W        W66718  11.769  21.264   3.492
24708W        W66719   6.509  24.141   9.342
24709W        W66720  19.529   5.814  14.942
24710W        W66721  22.839  21.541   2.208
24711W        W66722   9.549   4.054   1.478
24712W        W66723  12.379   3.414   0.878
24713W        W66724  20.729   0.224   2.498
24714W        W66725   7.259  10.244   1.628
24715W        W66726  24.859  25.401   1.758
24716W        W66727  13.959   3.984   9.202
24717W        W66728  13.519  12.734   1.118
24718W        W66729   3.339   6.224   2.218
24719W        W66730  13.949   0.494   3.632
24720W        W66731  16.089  10.784   1.628
24721W        W66732  17.669  16.354   4.462
24722W        W66733   3.799  24.811  10.062
24723W        W66734  10.969  11.264   3.462
24724W        W66735   0.339  16.034   9.552
24725W        W66736   6.389  19.804   1.158
24726W        W66737   9.489   9.834   9.332
24727W        W66738  18.939   6.924   3.222
24728W        W66739  25.479  13.534  10.182
24729W        W66740   0.669   7.704   0.198
24730W        W66741   2.719   5.614   0.618
24731W        W66742   4.569   3.864   9.812
24732W        W66743   3.219   2.974   7.712
24733W        W66744   8.759  10.274   2.418
24734W        W66745  19.359   5.094   7.702
24735W        W66746   7.029  10.354  11.132
24736W        W66747   7.799  18.464  15.722
24737W        W66748  21.959  11.694   9.122
24738W        W66749  12.899   5.284   3.262
24739W        W66750  22.789   5.814  10.562
24740W        W66751  20.219   0.774  10.672
24741W        W66752  14.629  12.964  15.592
24742W        W66753   9.599   7.074   9.662
24743W        W66754  12.859   8.174   1.518
24744W        W66755  10.869  21.821   2.582
24745W        W66756  13.239  20.704   0.638
24746W        W66757  10.659  19.714   3.542
24747W        W66758  21.569   4.554   7.342
24748W        W66759  15.649   8.054   2.348
24749W        W66760   6.319  22.041   2.188
24750W        W66761   3.799  24.351   8.772
24751W        W66762  14.419   2.284   3.152
24752W        W66763  10.919   3.344   2.468
24753W        W66764   5.849  18.034   2.532
24754W        W66765  12.399  17.114  11.192
24755W        W66766  12.979  17.734   9.472
24756W        W66767   0.079   2.364   3.252
24757W        W66768  24.669   8.094   0.818
24758W        W66769  17.009   6.164   8.742
24759W        W66770   1.489  24.481   8.612
24760W        W66771  20.889   0.534  11.822
24761W        W66772  24.759   4.694   7.582
24762W        W66773  12.439  19.514   9.712
24763W        W66774   5.959   9.814   2.682
24764W        W66775  23.619  19.194   1.828
24765W        W66776   9.799  14.204  15.002
24766W        W66777  25.279  21.441   0.878
24767W        W66778   7.199   7.834   9.432
24768W        W66779   3.679  19.464   8.632
24769W        W66780  21.259  23.781  11.292
24770W        W66781   2.409  25.291   1.518
24771W        W66782   7.959   1.904   0.488
24772W        W66783  17.919   9.654  14.462
24773W        W66784  17.239   9.974   0.938
24774W        W66785   1.399  18.024  11.202
24775W        W66786   2.169   2.334   8.732
24776W        W66787  10.329  18.254   4.662
24777W        W66788   7.429   1.014  10.182
24778W        W66789  21.329   3.484   2.208
24779W        W66790  20.029  19.264   2.478
24780W        W66791  23.899  15.694   1.888
24781W        W66792  24.809   6.454   1.188
24782W        W66793  21.609  20.594   8.082
24783W        W66794  22.509  14.184  10.952
24784W        W66795  24.499   9.724   2.118
24785W        W66796  15.509   9.814   3.302
24786W        W66797  15.529  20.694   3.412
24787W        W66798   3.299  22.621   0.088
24788W        W66799   1.109  23.241  11.022
24789W        W66800   1.169   6.014  11.242
24790W        W66801   7.139  16.704  11.182
24791W        W66802  10.399   6.904   8.982
24792W        W66803  16.109   7.274  10.542
24793W        W66804  11.419  19.244  15.452
24794W        W66805   4.899   7.624   9.542
24795W        W66806   1.549   6.194   1.188
24796W        W66807  21.229  17.044  12.132
24797W        W66808   8.949  17.624   8.292
24798W        W66809  15.529  16.864   0.488
24799W        W66810  21.499   3.714   1.318
24800W        W66811  22.149   8.424   7.222
24801W        W66812  19.849   4.274   8.162
24802W        W66813  15.089  22.311   8.362
24803W        W66814  14.179  19.474   1.598
24804W        W66815   8.159  10.604  15.302
24805W        W66816   3.439   5.124   0.458
24806W        W66817  19.369  23.421  15.432
24807W        W66818  20.179  17.634   9.542
24808W        W66819  11.039  20.564   0.008
24809W        W66820  21.019  16.714   3.252
24810W        W66821  23.189  22.841   1.118
24811W        W66822   5.709  21.721   3.402
24812W        W66823  16.759  21.991  11.502
24813W        W66824  11.179  19.394   0.858
24814W        W66825   5.479   7.244  10.952
24815W        W66826  14.429   6.584   0.778
24816W        W66827  18.339   4.894   2.458
24817W        W66828   4.129  11.494   1.868
24818W        W66829  23.849   3.084  11.452
24819W        W66830  21.039  24.851   2.268
24820W        W66831  23.139  16.444   2.772
24821W        W66832   2.419  11.924  15.032
24822W        W66833  12.389   6.214   1.608
24823W        W66834  10.029  25.261   3.942
24824W        W66835  20.749  10.344  11.792
24825W        W66836  14.069  16.254   9.322
24826W        W66837  11.129  24.251  10.422
24827W        W66838  22.389  11.314   8.702
24828W        W66839   7.139  18.504  10.192
24829W        W66840  13.149  10.794   2.388
24830W        W66841  23.339  25.421  11.482
24831W        W66842  20.539  12.094  15.662
24832W        W66843  11.919   9.964   1.688
24833W        W66844  20.809   2.924   9.192
24834W        W66845   0.779   0.554   1.288
24835W        W66846  19.109  13.774  10.622
24836W        W66847   3.349  22.671   8.112
24837W        W66848   6.099  13.124   8.952
24838W        W66849  21.059   3.194   3.352
24839W        W66850  24.239  19.404   1.048
24840W        W66851   5.159  11.984   8.932
24841W        W66852  21.789  18.414   0.858
24842W        W66853  17.799  10.074   2.762
24843W        W66854   5.849   5.154  10.572
24844W        W66855  19.579  10.644   0.468
24845W        W66856  17.769   5.304   8.592
24846W        W66857   2.889   1.854   2.682
24847W        W66858   2.509  17.594   0.088
24848W        W66859   4.269  22.051  11.492
24849W        W66860  14.299  21.671   9.802
24850W        W66861   5.909  20.564   2.992
24851W        W66862  23.989   4.364   6.482
24852W        W66863  22.639  11.014   3.762
24853W        W66864  10.319  11.444   1.178
24854W        W66865  13.989   5.734   2.742
24855W        W66866  15.279  13.844   2.632
24856W        W66867  25.069  19.184   1.968
24857W        W66868  22.829  22.291   2.632
24858W        W66869   4.879   2.144   8.702
24859W        W66870   0.169  16.494   9.612
24860W        W66871   7.279   3.574   8.412
24861W        W66872   8.249  23.531   3.042
24862W        W66873  14.329  11.024  15.392
24863W        W66874  16.159  24.141   7.432
24864W        W66875  23.909   0.344   9.312
24865W        W66876  22.679  24.251  10.882
24866W        W66877  14.819   8.804  14.292
24867W        W66878   7.469  24.811  10.072
24868W        W66879  12.509  18.004   8.612
24869W        W66880  23.269   4.644   9.672
24870W        W66881   0.819  11.474   7.812
24871W        W66882   7.459   1.884   3.312
24872W        W66883   0.119   3.324   3.102
24873W        W66884  24.159  10.274  10.012
24874W        W66885  10.869  23.051   0.338
24875W        W66886   8.999  17.474  11.452
24876W        W66887   5.919   8.234   2.902
24877W        W66888   9.639  21.701  10.122
24878W        W66889  14.359  12.594   2.198
24879W        W66890  15.849  21.284   2.218
24880W        W66891  15.789  24.881   2.188
24881W        W66892  12.539   5.954  10.642
24882W        W66893   4.249   8.264  14.592
24883W        W66894  14.639   1.654   2.228
24884W        W66895  10.429  20.934   4.282
24885W        W66896  16.549  20.504   1.608
24886W        W66897  14.809  13.894   2.792
24887W        W66898  24.459   6.644  10.522
24888W        W66899  14.429   0.364  15.682
24889W        W66900  13.029   3.804  15.562
24890W        W66901   7.899  23.161  15.672
24891W        W66902  16.989   3.564   2.458
24892W        W66903   9.649  15.654   1.678
24893W        W66904   6.839   4.214   1.638
24894W        W66905  11.309  23.301   1.178
24895W        W66906   8.889   5.614   2.582
24896W        W66907  25.059  22.461   7.342
24897W        W66908  17.029   7.514   0.698
24898W        W66909  20.529   0.174  11.992
24899W        W66910   6.929   2.544   0.908
24900W        W66911  21.759  15.174   2.338
24901W        W66912   7.989  14.164   2.542
24902W        W66913   3.399   3.264   9.972
24903W        W66914  24.669  24.091   7.692
24904W        W66915   8.119   7.504  10.642
24905W        W66916  23.459  22.011  10.472
24906W        W66917   5.769   8.534   1.708
24907W        W66918   8.219  20.264  11.052
24908W        W66919   3.049  11.154   9.862
24909W        W66920  10.849   1.474  10.932
24910W        W66921  20.159  22.651   3.962
24911W        W66922   3.609   9.684   8.352
24912W        W66923  13.339  17.914  10.402
24913W        W66924   0.041   6.804   9.852
24914W        W66925   3.289   5.614   2.982
24915W        W66926   6.449  17.094   2.802
24916W        W66927  22.349   3.614   3.312
24917W        W66928  24.659  21.134   4.222
24918W        W66929  13.649   6.914   8.802
24919W        W66930  18.129   8.024   0.098
24920W        W66931   1.599  25.461   1.308
24921W        W66932  22.159   4.294   0.488
24922W        W66933  13.839  23.021   4.702
24923W        W66934  24.579  19.244  11.322
24924W        W66935   3.319   3.864  15.102
24925W        W66936  14.699  10.444   0.598
24926W        W66937  11.259  16.204   0.368
24927W        W66938  21.639  13.134   9.512
24928W        W66939  21.639   7.484  11.012
24929W        W66940   3.509   1.054  14.822
24930W        W66941  12.069   4.344   3.072
24931W        W66942   4.279  24.761   8.922
24932W        W66943   1.809   5.764   7.512
24933W        W66944  14.999   3.054   8.532
24934W        W66945   0.469   8.974   7.422
24935W        W66946  23.679  14.354   8.932
24936W        W66947  12.979  18.064   0.298
24937W        W66948  24.179  20.004   1.918
24938W        W66949   3.629  10.824   0.728
24939W        W66950  10.239  12.444   2.188
24940W        W66951   1.929  14.284   8.882
24941W        W66952  14.879   2.304   4.002
24942W        W66953  18.439  14.994   7.862
24943W        W66954  18.049   6.494   0.908
24944W        W66955  25.119   3.534   9.162
24945W        W66956  11.859  23.251   1.328
24946W        W66957   5.799  20.324   3.612
24947W        W66958   2.639  11.304   0.738
24948W        W66959  16.779   6.644   1.698
24949W        W66960   2.799   2.644   8.992
24950W        W66961   6.319   3.104   8.532
24951W        W66962  25.089  14.784   1.798
24952W        W66963  10.279   9.044   2.108
24953W        W66964  23.859  24.081   1.898
24954W        W66965  13.089  15.784   3.952
24955W        W66966   9.889   0.044   0.088
24956W        W66967   7.969  23.951   9.952
24957W        W66968   2.389  12.444   9.142
24958W        W66969  15.539  13.114   3.212
24959W        W66970  21.569  21.401   3.172
24960W        W66971  19.679  14.404  10.922
24961W        W66972  15.169  17.414   8.522
24962W        W66973   3.279   9.494   0.508
24963W        W66974  12.459  11.494   2.178
24964W        W66975  23.219   8.704  10.522
24965W        W66976  25.329  10.964   0.918
24966W        W66977  17.519   7.784   2.028
24967W        W66978   8.799   9.434   0.718
24968W        W66979   7.889  22.931   9.752
24969W        W66980   5.859   1.384   0.898
24970W        W66981   9.389   6.354  14.282
24971W        W66982   4.379  15.064  15.862
24972W        W66983   9.069  12.054  11.142
24973W        W66984   0.409  14.734   3.122
24974W        W66985  19.119   2.864   9.142
24975W        W66986  12.109   1.864   2.238
24976W        W66987  22.879  24.281   3.432
24977W        W66988   1.719  18.654   0.248
24978W        W66989   3.799  16.914   0.148
24979W        W66990  18.789  22.601   7.682
24980W        W66991   1.349   7.944   7.862
24981W        W66992  13.099  21.054   9.532
24982W        W66993  22.089  17.644   7.042
24983W        W66994  13.549   8.124   9.712
24984W        W66995  12.259  17.174  10.272
24985W        W66996   2.909   0.164   2.478
24986W        W66997   1.069  17.744  11.652
24987W        W66998   0.839  15.464  11.582
24988W        W66999   7.849  17.344   3.272
24989W        W67000  25.179  21.941  11.152
24990W        W67001   6.379  24.101   0.888
24991W        W67002  12.209   5.254   0.048
24992W        W67003  18.409  16.634   8.902
24993W        W67004  19.599  19.134   3.922
24994W        W67005  13.739  21.911   8.512
24995W        W67006  10.079   9.474   1.798
24996W        W67007   2.099   8.414  10.292
24997W        W67008  21.149  13.664   1.238
24998W        W67009   0.949   5.604   9.412
24999W        W67010   8.479   4.484   2.842
25000W        W67011  24.909   4.694   9.402
25001W        W67012  11.489   1.514   0.118
25002W        W67013  11.829  21.304   0.458
25003W        W67014   6.469  16.064  10.882
25004W        W67015   3.149  11.004   0.988
25005W        W67016  17.229   5.614   2.512
25006W        W67017   6.459  19.794   8.442
25007W        W67018  10.509   0.334   3.972
25008W        W67019  17.569  21.304   3.102
25009W        W67020  20.269   2.324   8.572
25010W        W67021  12.489  14.384  15.792
25011W        W67022  21.289   4.994   1.898
25012W        W67023  24.679  23.021  11.532
25013W        W67024  11.019   4.524   1.208
25014W        W67025  12.339  14.704   1.358
25015W        W67026  19.479  19.124   7.972
25016W        W67027  23.069  24.641  12.522
25017W        W67028  12.799  11.874  14.592
25018W        W67029   5.299  11.054   7.722
25019W        W67030   4.029  18.814   2.118
25020W        W67031  14.369  14.864  15.652
25021W        W67032  14.629   1.864  15.472
25022W        W67033   0.199  18.534   9.592
25023W        W67034   5.989   5.874  10.102
25024W        W67035   6.009  15.874   9.622
25025W        W67036  20.169   6.784   2.922
25026W        W67037  11.969   5.254  10.362
25027W        W67038   1.789   7.794   9.702
25028W        W67039   7.869   7.864  15.842
25029W        W67040   7.069  12.744   9.762
25030W        W67041  18.579   9.644   2.722
25031W        W67042  12.149  20.264   4.002
25032W        W67043   4.409  18.524   2.008
25033W        W67044  20.899  15.404   1.558
25034W        W67045  22.809   6.154  15.722
25035W        W67046  22.159  13.284   8.022
25036W        W67047  14.339   2.084  14.462
25037W        W67048  22.739  25.051  15.672
25038W        W67049   8.259  14.934   0.518
25039W        W67050  14.619  11.304   3.962
25040W        W67051  14.609   7.104   4.652
25041W        W67052  25.419   7.014   2.732
25042W        W67053  21.749  21.551   1.648
25043W        W67054  23.139  24.281   3.002
25044W        W67055  15.619  14.874   0.928
25045W        W67056  19.619  21.511   0.928
25046W        W67057  21.809   3.594   9.512
25047W        W67058  20.009  11.424   0.048
25048W        W67059   7.009  17.054   7.442
25049W        W67060   5.429  14.524  10.632
25050W        W67061  21.959  21.751   8.032
25051W        W67062   7.269  21.234   9.312
25052W        W67063   9.569   0.014   0.488
25053W        W67064   8.989   6.574  14.082
25054W        W67065  14.879  16.454   0.978
25055W        W67066  24.219   7.824   0.388
25056W        W67067  25.219  13.574   3.222
25057W        W67068   5.949   9.234   8.042
25058W        W67069   9.589  20.504  10.222
25059W        W67070   4.329  23.751  10.482
25060W        W67071   1.729  22.181  10.402
25061W        W67072   6.159  21.931   9.712
25062W        W67073   2.769   6.214   3.632
25063W        W67074  12.789  17.654  11.272
25064W        W67075  20.169  20.134   8.612
25065W        W67076  17.779  15.914   9.212
25066W        W67077  18.129   1.384  10.352
25067W        W67078   8.229  18.934   4.082
25068W        W67079  13.289   7.234  14.992
25069W        W67080   9.059  16.814   9.122
25070W        W67081   0.609  12.774   1.688
25071W        W67082  23.149  19.114   9.322
25072W        W67083   8.019  16.694   8.592
25073W        W67084   4.159   6.324   2.198
25074W        W67085   7.269   6.504   9.732
25075W        W67086  10.449   3.814  10.712
25076W        W67087  23.979   2.144  11.542
25077W        W67088  12.819  12.304   0.118
25078W        W67089   3.419  22.481   9.832
25079W        W67090  12.139   0.594  10.892
25080W        W67091   8.589   6.304   1.748
25081W        W67092  22.139  21.234   1.628
25082W        W67093  23.409  12.914   9.732
25083W        W67094  25.529  11.104   8.822
25084W        W67095  11.509  11.414   3.582
25085W        W67096  12.219   4.994   7.802
25086W        W67097  24.119   8.594   7.922
25087W        W67098   9.129   9.474   2.248
25088W        W67099  13.659  18.374  10.382
25089W        W67100   2.939   1.264   9.572
25090W        W67101  25.019   8.794   9.142
25091W        W67102   1.079  22.981   1.968
25092W        W67103  23.499   1.344   0.758
25093W        W67104  23.959   2.884   9.542
25094W        W67105  11.829   6.094   9.382
25095W        W67106  21.109  16.884   1.858
25096W        W67107  14.019  23.661  15.682
25097W        W67108   0.349   5.234   1.988
25098W        W67109  14.849  14.024   0.668
25099W        W67110  18.799   8.224   8.752
25100W        W67111   0.249  18.334   8.102
25101W        W67112  24.099  25.131   0.808
25102W        W67113  16.089  10.094   0.878
25103W        W67114  18.419  12.704  15.252
25104W        W67115   2.829  23.861   7.842
25105W        W67116   0.959  20.604  11.002
25106W        W67117   7.709  13.324  15.292
25107W        W67118  21.239  11.254   8.952
25108W        W67119   5.129  11.844  10.192
25109W        W67120  13.919  10.574   2.642
25110W        W67121   9.179  22.551   1.348
25111W        W67122   2.039  10.354   2.288
25112W        W67123   8.209  19.004   0.828
25113W        W67124  16.899   7.934   4.072
25114W        W67125  18.199  11.864   2.238
25115W        W67126  25.099  15.484  11.022
25116W        W67127   8.419  19.394   3.832
25117W        W67128  21.259   8.354   7.902
25118W        W67129  14.619   0.304   3.372
25119W        W67130  22.119  20.354   8.232
25120W        W67131   4.309  13.994   0.128
25121W        W67132  17.299  22.641   9.732
25122W        W67133   1.549  13.334   2.762
25123W        W67134  14.389  14.324  15.322
25124W        W67135   0.929  18.674  11.862
25125W        W67136  21.099  21.751   1.868
25126W        W67137  21.309   2.544   2.532
25127W        W67138  14.839   4.614   4.342
25128W        W67139  13.679  18.814  14.622
25129W        W67140  19.189   3.364   9.372
25130W        W67141  13.979  16.044  10.512
25131W        W67142   4.799  22.201  10.492
25132W        W67143  24.019   1.624   0.058
25133W        W67144   4.179   9.204   8.542
25134W        W67145  10.629   0.324   2.398
25135W        W67146  21.629  18.704  10.852
25136W        W67147   8.259  16.734   2.358
25137W        W67148  18.999   1.944   0.048
25138W        W67149  19.659   6.234  10.702
25139W        W67150   0.309   2.184   2.552
25140W        W67151   0.579  13.874   8.592
25141W        W67152  15.749   3.594   2.742
25142W        W67153  13.099   1.394   3.872
25143W        W67154   0.459   0.064   0.388
25144W        W67155  20.789   6.564   9.362
25145W        W67156   2.359   3.474   2.478
25146W        W67157  16.379  24.851   8.452
25147W        W67158  10.399   3.994   9.012
25148W        W67159   0.289  22.301   9.552
25149W        W67160  10.019  16.864  10.062
25150W        W67161  12.709  14.034  15.492
25151W        W67162   3.949   9.764   8.742
25152W        W67163   1.409   5.974   7.202
25153W        W67164  11.989   6.124   4.722
25154W        W67165  11.479  25.021   2.522
25155W        W67166  13.009  19.844   2.208
25156W        W67167  22.779  17.024   7.872
25157W        W67168  16.489  10.584   1.508
25158W        W67169   4.679   5.794   2.652
25159W        W67170  21.729   2.834  15.712
25160W        W67171  14.199   1.754   4.012
25161W        W67172   4.499   8.194   0.588
25162W        W67173  16.169  13.894   3.612
25163W        W67174  18.629   1.234  11.422
25164W        W67175  16.679   0.684   1.668
25165W        W67176  16.119  15.194   1.738
25166W        W67177   8.809   8.844   1.848
25167W        W67178   6.669  13.644   8.192
25168W        W67179  24.739   5.844   6.722
25169W        W67180   7.759   5.214   4.062
25170W        W67181  20.959   5.994   0.408
25171W        W67182   2.529  25.421  10.562
25172W        W67183   6.129   1.664   9.802
25173W        W67184  15.179   6.834   1.888
25174W        W67185   0.379  12.774   1.088
25175W        W67186   0.849  22.051   2.168
25176W        W67187  15.789  21.611   1.678
25177W        W67188   7.609  13.574   2.158
25178W        W67189  13.979   1.914   1.628
25179W        W67190  17.529  14.664   0.868
25180W        W67191   3.569  21.631   8.762
25181W        W67192  16.019  24.071   2.428
25182W        W67193  24.759   5.204   9.662
25183W        W67194  10.689   4.384   8.632
25184W        W67195   6.169   6.934   0.878
25185W        W67196   3.519  10.504   9.062
25186W        W67197   6.409  15.184   3.352
25187W        W67198  19.349  10.934   2.398
25188W        W67199  10.759   1.824   8.762
25189W        W67200  18.489  18.754   1.678
25190W        W67201   8.159  25.271   4.682
25191W        W67202   5.899  11.564   2.198
25192W        W67203  14.639  25.511   0.988
25193W        W67204  17.539  18.014  11.022
25194W        W67205   3.049   5.084  15.522
25195W        W67206  12.719  17.544   1.598
25196W        W67207   6.399  15.474   2.922
25197W        W67208  24.399  16.014   9.332
25198W        W67209   4.119   6.834   1.268
25199W        W67210  20.829   8.894   2.942
25200W        W67211  18.059   2.694   3.952
25201W        W67212  21.329  19.214   3.142
25202W        W67213  13.089  20.784   9.042
25203W        W67214   9.009   7.914   9.062
25204W        W67215   0.369   4.704   8.922
25205W        W67216   1.209  11.974   1.808
25206W        W67217   4.469  11.314   8.752
25207W        W67218  11.669  18.814   3.862
25208W        W67219  14.909  13.414  15.802
25209W        W67220   7.289  11.024   3.952
25210W        W67221  11.569  23.981   0.858
25211W        W67222  22.789   1.264  11.012
25212W        W67223  14.909   2.674   8.892
25213W        W67224  17.259  24.931   9.662
25214W        W67225  20.429  15.074   0.138
25215W        W67226  23.009  17.524   3.222
25216W        W67227  11.429   4.194   9.042
25217W        W67228   3.219  10.544   7.792
25218W        W67229   8.619  12.894   8.492
25219W        W67230   9.489   0.614   0.378
25220W        W67231  14.849  22.001   9.332
25221W        W67232   9.769  19.054   3.872
25222W        W67233  10.819  21.314   1.198
25223W        W67234   9.639  21.114   9.102
25224W        W67235   8.939  23.581   0.588
25225W        W67236   4.349  12.994   3.102
25226W        W67237  10.599   3.994   1.758
25227W        W67238  18.589  12.314   2.632
25228W        W67239  16.859  24.711   3.042
25229W        W67240  16.729   8.074   2.682
25230W        W67241   3.109  22.251   8.202
25231W        W67242  16.799  20.654   0.948
25232W        W67243   8.809  23.611  10.952
25233W        W67244   9.949  20.674   9.162
25234W        W67245   7.039  23.261  10.612
25235W        W67246  25.139   1.354   1.118
25236W        W67247   1.509  10.194   9.172
25237W        W67248  12.609   5.494  15.742
25238W        W67249  17.289   3.644   9.102
25239W        W67250  16.119   5.004  14.752
25240W        W67251  13.699  20.224   1.228
25241W        W67252   7.149  15.904   4.442
25242W        W67253  11.589  17.844  15.422
25243W        W67254  21.759   6.964  11.772
25244W        W67255   5.229   9.294  10.012
25245W        W67256  10.339   9.364   8.872
25246W        W67257  14.629  20.934   3.942
25247W        W67258  15.589   6.024  10.882
25248W        W67259   0.609   5.814   7.602
25249W        W67260   9.359  19.994   1.598
25250W        W67261   0.689  19.204   8.472
25251W        W67262   8.179  19.674   3.452
25252W        W67263  21.659  11.304   2.982
25253W        W67264  22.759   3.974   3.552
25254W        W67265  12.159  10.454   9.102
25255W        W67266  17.389   2.244   3.562
25256W        W67267   9.379   4.334   7.712
25257W        W67268   9.519  19.394   2.722
25258W        W67269  13.869  19.884  10.052
25259W        W67270  13.349  17.954   9.172
25260W        W67271  14.999   3.174   9.102
25261W        W67272  23.729  14.654  10.482
25262W        W67273  21.939  18.814   3.382
25263W        W67274   8.829  11.304   2.298
25264W        W67275   0.229  15.004   3.522
25265W        W67276   1.509  15.474  10.892
25266W        W67277  12.069  24.501   3.462
25267W        W67278   6.039  13.714   9.522
25268W        W67279  21.619  21.881  12.612
25269W        W67280  23.489   2.544  11.642
25270W        W67281  14.369   3.594  14.962
25271W        W67282   2.479  22.381   7.672
25272W        W67283   8.619   3.114   8.462
25273W        W67284   9.809   4.344  15.242
25274W        W67285  15.799  23.201   8.812
25275W        W67286  16.089  13.714  14.622
25276W        W67287  19.639  20.554   7.182
25277W        W67288   4.749  21.521   2.418
25278W        W67289  15.169  19.224   4.572
25279W        W67290   8.779  13.654   9.262
25280W        W67291   7.749  15.974   3.232
25281W        W67292  21.319  25.311   4.072
25282W        W67293  12.879   4.204   2.448
25283W        W67294  21.259   3.124   3.822
25284W        W67295   5.459   6.584   1.278
25285W        W67296  18.349   8.944   3.452
25286W        W67297  23.689  14.664   8.552
25287W        W67298  16.689   4.354   7.792
25288W        W67299  16.149  12.604   0.718
25289W        W67300   3.099  16.964  14.962
25290W        W67301  15.999   3.094  10.942
25291W        W67302  24.179   9.254   9.382
25292W        W67303  14.249  20.974   1.318
25293W        W67304  22.359  13.814   2.942
25294W        W67305   8.829   0.754  14.982
25295W        W67306  22.299  17.174   8.542
25296W        W67307   0.159  12.214   9.892
25297W        W67308   5.249  21.044   0.908
25298W        W67309   7.329   8.524   8.762
25299W        W67310  12.759  11.214   3.192
25300W        W67311  12.299  17.574   9.982
25301W        W67312  18.339  16.474   9.952
25302W        W67313   9.299  22.801   0.958
25303W        W67314  21.409  10.864  15.762
25304W        W67315   3.819   3.694   9.192
25305W        W67316  12.739  16.444  10.602
25306W        W67317  19.659  23.051   1.758
25307W        W67318   1.149  25.031  10.502
25308W        W67319   6.459  11.764   9.482
25309W        W67320   3.319  23.601   3.782
25310W        W67321   4.829   1.384  15.622
25311W        W67322  14.619   7.884   2.438
25312W        W67323  15.289   0.844   2.318
25313W        W67324  10.189  20.694   5.002
25314W        W67325   3.139  18.764   9.562
25315W        W67326   6.609  14.864  15.552
25316W        W67327  19.679  17.214   2.832
25317W        W67328  19.739  16.464   3.572
25318W        W67329  12.459   3.004   2.428
25319W        W67330  21.419   5.464  15.852
25320W        W67331  10.289   6.274   4.282
25321W        W67332   9.819  14.814   4.012
25322W        W67333  24.349   1.804   0.558
25323W        W67334   9.689  24.421  15.082
25324W        W67335   6.219  18.994   8.782
25325W        W67336  10.989  14.294   4.582
25326W        W67337  11.569  16.004  15.432
25327W        W67338   0.669  10.014   0.358
25328W        W67339   9.259   1.204   1.308
25329W        W67340  24.819  14.374   8.342
25330W        W67341   6.709   0.434   7.812
25331W        W67342   7.689   8.844   7.592
25332W        W67343  12.119  21.481  10.922
25333W        W67344   6.509  14.744   8.782
25334W        W67345  23.699   1.394  10.772
25335W        W67346  17.629   9.464   8.132
25336W        W67347  18.759  20.004   1.158
25337W        W67348  21.259   7.594   9.732
25338W        W67349   1.809  24.791  12.052
25339W        W67350  17.019  25.081   2.642
25340W        W67351  25.189  20.824   7.912
25341W        W67352  13.719   6.984  10.192
25342W        W67353   4.799  19.344   3.902
25343W        W67354   3.279   0.904   8.232
25344W        W67355   6.029  18.514   1.298
25345W        W67356  25.279  13.044   2.428
25346W        W67357   9.119  16.614   0.508
25347W        W67358  14.009  10.964   2.952
25348W        W67359   4.229  10.114  12.182
25349W        W67360  13.609  19.434  10.532
25350W        W67361  23.929   6.854   8.692
25351W        W67362  21.429   2.074  11.112
25352W        W67363   7.889   6.864   9.962
25353W        W67364   2.069  10.134   0.818
25354W        W67365  11.859  15.494   1.148
25355W        W67366  23.419  15.754   1.648
25356W        W67367  10.369   3.954   9.522
25357W        W67368  18.559  18.644   2.228
25358W        W67369   2.099  21.811   3.262
25359W        W67370  15.349   2.304  10.762
25360W        W67371  12.199  13.504   5.002
25361W        W67372   3.699  19.154   1.258
25362W        W67373   3.109  22.021   4.282
25363W        W67374   7.609  19.584  11.162
25364W        W67375  21.029   9.744   8.132
25365W        W67376  20.619   2.714   0.208
25366W        W67377  24.409  17.494   0.528
25367W        W67378  18.749   4.514  15.482
25368W        W67379   6.459  23.831   3.832
25369W        W67380   0.699   2.014  10.872
25370W        W67381   9.459   7.084   2.418
25371W        W67382   2.999   4.054   2.428
25372W        W67383  12.289  22.211  11.402
25373W        W67384  19.659  20.344   7.792
25374W        W67385  23.779  16.684   2.248
25375W        W67386  25.069  20.824   9.622
25376W        W67387  25.119   9.224   1.788
25377W        W67388  24.649   7.264  15.762
25378W        W67389   4.099  21.891  11.002
25379W        W67390  10.239  18.934   9.802
25380W        W67391   8.689  10.084   0.498
25381W        W67392  16.029  21.811   2.098
25382W        W67393   4.639   4.714   1.938
25383W        W67394  16.539   6.434   3.892
25384W        W67395   9.749  10.434  15.712
25385W        W67396  22.959  24.811   0.538
25386W        W67397   7.669   5.884   1.948
25387W        W67398  14.309   7.864   5.142
25388W        W67399  22.219   9.464  11.582
25389W        W67400   1.999  18.464   7.932
25390W        W67401  16.189   6.794   1.528
25391W        W67402   9.179  19.984   2.088
25392W        W67403   3.809   4.544   9.542
25393W        W67404  17.199   4.534   2.852
25394W        W67405  25.019  15.814   9.072
25395W        W67406   3.909  20.044  10.022
25396W        W67407  12.749   5.264  11.162
25397W        W67408   5.499  22.141  15.702
25398W        W67409   8.209  17.874   7.722
25399W        W67410  21.329  22.431   1.188
25400W        W67411  12.069  12.004   1.988
25401W        W67412  16.179   3.514  11.852
25402W        W67413  22.739  16.764   2.882
25403W        W67414   4.479   1.934   3.682
25404W        W67415   0.109   4.964  15.712
25405W        W67416   5.929   1.914   2.852
25406W        W67417  10.319  20.964   2.502
25407W        W67418  17.509  18.694  15.682
25408W        W67419  16.959   8.294   8.492
25409W        W67420  11.509   1.574   2.832
25410W        W67421   0.289  10.194   9.862
25411W        W67422  20.749   0.894  10.532
25412W        W67423  14.359  15.944  10.152
25413W        W67424  18.579  13.104   8.262
25414W        W67425  16.379  14.934   9.432
25415W        W67426  18.229   2.734  10.232
25416W        W67427   8.929   6.484   8.502
25417W        W67428   3.819  17.194   9.312
25418W        W67429  19.569  15.694   1.018
25419W        W67430   8.159  12.744   8.312
25420W        W67431   1.209   3.034   2.268
25421W        W67432  15.609  16.964   9.232
25422W        W67433  14.559  12.354  15.722
25423W        W67434   4.059  25.481  10.062
25424W        W67435   3.999  24.241  10.922
25425W        W67436   1.619  24.801  10.962
25426W        W67437  13.719   5.404   1.318
25427W        W67438   6.119  16.484   8.922
25428W        W67439   9.169   8.784   7.952
25429W        W67440  25.269   6.684   7.222
25430W        W67441  11.769  23.761   1.838
25431W        W67442   4.529  14.184   8.262
25432W        W67443  12.439  25.521   0.448
25433W        W67444   4.419   2.744   1.718
25434W        W67445  18.689   4.124  10.682
25435W        W67446  23.769  20.584   8.842
25436W        W67447  20.069  16.094   8.282
25437W        W67448  23.479   1.394   0.288
25438W        W67449   8.029  13.934   3.222
25439W        W67450   6.549   2.294  11.302
25440W        W67451  22.759   1.414   9.742
25441W        W67452   9.969   4.904   3.692
25442W        W67453   9.909   3.764   9.392
25443W        W67454  11.449  16.194   9.042
25444W        W67455   1.799  21.531   1.808
25445W        W67456  20.469  13.824   3.872
25446W        W67457  11.029   8.454   1.988
25447W        W67458   9.289  19.084   3.672
25448W        W67459  19.389   6.114  15.572
25449W        W67460  18.169  14.534   0.558
25450W        W67461  10.079   7.474   0.128
25451W        W67462   0.939   2.134  10.192
25452W        W67463  20.159  16.074   8.762
25453W        W67464   6.639  19.864   3.622
25454W        W67465   8.449  25.591   8.272
25455W        W67466  22.409  10.254   0.668
25456W        W67467  12.249  10.214  14.712
25457W        W67468  16.439  11.624   1.098
25458W        W67469  16.569  20.824   9.132
25459W        W67470   6.109   9.034   1.128
25460W        W67471   3.939  15.194  11.012
25461W        W67472  14.039  18.944   9.032
25462W        W67473  19.309   4.734   4.432
25463W        W67474  14.899   5.904   3.182
25464W        W67475  22.829  25.031  10.652
25465W        W67476   7.949   0.264   9.012
25466W        W67477   9.159   1.614  10.192
25467W        W67478  24.289  17.684   8.362
25468W        W67479   8.759   1.884   3.062
25469W        W67480  25.569  17.254   8.482
25470W        W67481  18.629  16.424   8.362
25471W        W67482   3.959  13.334   7.712
25472W        W67483  11.659   7.494   4.122
25473W        W67484   9.889  10.564   3.202
25474W        W67485  24.899  10.334  11.052
25475W        W67486  23.779  23.041   2.368
25476W        W67487  16.419  23.691   2.248
25477W        W67488  18.949  15.694   9.072
25478W        W67489  10.919   1.044   9.632
25479W        W67490  18.929  13.894   1.708
25480W        W67491  16.769   2.024   9.432
25481W        W67492   5.099   5.414   7.812
25482W        W67493  24.519   6.774  11.362
25483W        W67494  18.039  11.074  11.052
25484W        W67495   1.379   3.644  11.062
25485W        W67496   4.549  21.224  11.272
25486W        W67497   1.839  18.394  11.152
25487W        W67498  17.209  17.394  11.272
25488W        W67499  17.909   5.724  10.822
25489W        W67500  14.809   2.904   9.562
25490W        W67501  23.579   3.194   6.792
25491W        W67502  10.659  13.204   1.028
25492W        W67503   3.049   1.084   0.798
25493W        W67504  17.409  16.774  10.542
25494W        W67505   4.399  15.624   3.482
25495W        W67506  24.119   0.334   9.872
25496W        W67507  11.779  22.451   1.128
25497W        W67508   3.439   1.564   3.362
25498W        W67509   1.119  18.944   1.008
25499W        W67510  24.609  10.034   7.862
25500W        W67511   3.169  23.421  11.342
25501W        W67512   1.379  12.514   1.948
25502W        W67513  13.299   0.574   2.238
25503W        W67514   3.319  13.104   9.942
25504W        W67515  20.669   2.424  11.552
25505W        W67516   4.069  23.501   8.582
25506W        W67517   5.839  21.044   0.778
25507W        W67518  13.019  19.784  10.482
25508W        W67519  24.809  17.504   1.108
25509W        W67520  19.419  19.044  10.592
25510W        W67521  23.499  16.694   8.332
25511W        W67522   0.041  24.871   9.372
25512W        W67523  17.129   2.424   9.592
25513W        W67524   7.559   0.984   0.558
25514W        W67525  17.569   9.454   0.258
25515W        W67526   3.669  19.704   9.082
25516W        W67527  16.899  16.034   3.012
25517W        W67528  23.359   0.974   2.148
25518W        W67529  23.829  19.504   4.082
25519W        W67530   2.479  21.541  10.082
25520W        W67531  12.989  24.231   3.492
25521W        W67532  23.079   2.174  11.782
25522W        W67533  11.049  14.884   4.452
25523W        W67534   3.559  13.644   7.342
25524W        W67535  20.969   3.454   7.922
25525W        W67536  12.729  23.441   2.328
25526W        W67537  15.009  23.541  10.092
25527W        W67538   3.609   0.714  10.992
25528W        W67539   8.169   3.944   0.998
25529W        W67540  16.309  23.901  10.912
25530W        W67541  20.649  18.234   8.442
25531W        W67542  20.629   0.454   3.992
25532W        W67543  19.129  14.074  11.532
25533W        W67544   1.899  17.524   4.112
25534W        W67545  18.109   1.224   0.958
25535W        W67546  17.429  23.431   1.518
25536W        W67547  18.399  16.204   2.368
25537W        W67548   1.309  10.114  15.552
25538W        W67549  13.029  11.274  10.802
25539W        W67550  16.819  18.254  15.732
25540W        W67551  13.319  11.514  14.282
25541W        W67552  20.179  23.681   1.058
25542W        W67553  21.279  18.124  11.572
25543W        W67554   2.479   9.944   2.048
25544W        W67555  13.249   9.804   9.532
25545W        W67556   1.609  11.924   7.472
25546W        W67557  12.709  18.174  15.732
25547W        W67558  24.539  14.854   9.592
25548W        W67559  15.849  11.094  10.172
25549W        W67560  12.759   1.334   0.808
25550W        W67561   2.599  16.604   2.108
25551W        W67562   7.319  17.554   0.108
25552W        W67563  13.859   8.954  14.552
25553W        W67564  16.779   1.414  15.252
25554W        W67565   2.319   2.114   0.178
25555W        W67566   7.249   5.154   0.298
25556W        W67567  13.529  22.031   9.212
25557W        W67568  16.379  25.101   7.502
25558W        W67569  20.399   1.784  15.682
25559W        W67570   3.009  11.104   9.052
25560W        W67571  17.439   2.564   0.258
25561W        W67572  22.819  21.601  15.532
25562W        W67573  14.719   7.834   1.898
25563W        W67574  11.829  11.564   4.652
25564W        W67575  16.939  20.414   7.542
25565W        W67576  16.149  11.334   0.838
25566W        W67577   8.279  13.764   0.928
25567W        W67578  20.299   4.874   3.452
25568W        W67579  20.419  21.611   0.818
25569W        W67580   2.859  14.214   0.918
25570W        W67581  14.669  12.624   4.322
25571W        W67582  17.179   4.194  14.762
25572W        W67583  12.239   0.404   3.292
25573W        W67584   5.889   4.294   6.932
25574W        W67585  15.819  16.744   3.432
25575W        W67586   3.829  19.654   1.168
25576W        W67587   8.139  13.644   2.218
25577W        W67588  21.899   7.984   0.568
25578W        W67589  11.609   5.434   4.002
25579W        W67590  17.459   3.754  15.072
25580W        W67591   5.359  18.974   0.488
25581W        W67592   8.459  23.191   9.812
25582W        W67593  21.949  14.564   0.748
25583W        W67594   5.539   9.864   8.602
25584W        W67595  15.779   2.464   2.258
25585W        W67596  24.219  20.924  10.482
25586W        W67597   0.739  20.564  11.632
25587W        W67598  24.509   7.664  10.442
25588W        W67599  25.409   2.014   6.862
25589W        W67600   5.599  19.514   1.978
25590W        W67601   8.229  13.894   1.558
25591W        W67602   5.339  18.254  10.522
25592W        W67603   0.349  24.341  11.112
25593W        W67604  20.069  10.514   2.298
25594W        W67605   7.969  13.764   8.842
25595W        W67606  25.589  24.451   2.592
25596W        W67607   9.339   4.284   2.338
25597W        W67608  12.359  18.874   3.902
25598W        W67609  13.359   5.424  11.282
25599W        W67610   8.449  23.661   9.692
25600W        W67611  10.929  13.184  10.962
25601W        W67612  15.519   8.494   8.932
25602W        W67613  23.689   0.784   2.872
25603W        W67614  23.969  15.674  11.842
25604W        W67615   3.909  12.424   1.108
25605W        W67616  24.789  23.261   9.982
25606W        W67617  14.129  22.681  11.212
25607W        W67618  12.349   2.044  10.572
25608W        W67619  16.709  22.971  12.222
25609W        W67620  19.109  16.754   1.118
25610W        W67621   7.219   3.374  15.742
25611W        W67622  20.999   0.074   1.278
25612W        W67623  15.459  25.501   2.228
25613W        W67624  14.179  11.164   3.922
25614W        W67625  17.529  17.794   1.008
25615W        W67626   7.639   0.674   1.828
25616W        W67627  18.899  21.501   9.802
25617W        W67628  10.809  16.244   4.432
25618W        W67629  16.999  16.754   3.912
25619W        W67630  16.909   8.774   0.168
25620W        W67631  16.729   1.464   8.772
25621W        W67632  22.029  16.444   2.972
25622W        W67633  16.439   6.854  14.722
25623W        W67634   1.669  23.651   1.208
25624W        W67635   9.659   5.084   1.558
25625W        W67636  18.479   8.114   2.902
25626W        W67637  13.179  18.574   3.942
25627W        W67638   7.519   1.904   2.742
25628W        W67639  20.109  13.274   3.602
25629W        W67640   0.709   6.764   8.762
25630W        W67641   2.259   3.594   9.002
25631W        W67642   1.409  13.734   7.312
25632W        W67643  23.739   5.604   0.778
25633W        W67644   3.579  21.324  10.432
25634W        W67645  15.249   8.404   4.182
25635W        W67646   2.899  21.921   3.012
25636W        W67647   3.279   6.284   8.842
25637W        W67648  15.179   4.854   3.942
25638W        W67649  17.669  23.881  15.692
25639W        W67650  20.469  13.864  15.772
25640W        W67651   9.639  19.744   4.692
25641W        W67652   4.969  17.914   4.442
25642W        W67653   4.129  19.274   9.852
25643W        W67654  18.019   9.684   8.562
25644W        W67655   7.449   2.124   9.462
25645W        W67656  18.129  24.741   0.118
25646W        W67657  14.809  16.874   0.738
25647W        W67658  13.009   4.784   0.568
25648W        W67659   0.369   6.244  10.572
25649W        W67660   8.819  23.721   7.622
25650W        W67661  19.469  22.301   0.258
25651W        W67662  16.969   0.924   3.292
25652W        W67663   6.459  16.614   3.672
25653W        W67664  23.609  22.921   9.512
25654W        W67665  13.219  17.594   0.318
25655W        W67666  15.869   8.474   1.768
25656W        W67667  13.849   6.884   0.848
25657W        W67668  12.379   8.694   4.002
25658W        W67669  19.039   8.414   1.458
25659W        W67670   0.829   5.614  11.112
25660W        W67671  13.459   0.994   3.002
25661W        W67672   2.699  10.784  11.312
25662W        W67673   7.869  19.654   0.118
25663W        W67674   1.619  10.144  11.112
25664W        W67675   5.629   3.744   3.472
25665W        W67676  23.159  20.214   2.842
25666W        W67677  11.589  14.714   9.652
25667W        W67678  18.559   1.514   2.602
25668W        W67679   9.059  13.834  11.182
25669W        W67680  18.449  22.211   8.652
25670W        W67681  11.979   8.164   2.822
25671W        W67682   9.399   2.244   3.162
25672W        W67683  18.369  16.864  10.942
25673W        W67684  15.159  15.434   9.262
25674W        W67685   0.709   0.194   1.678
25675W        W67686   7.439  11.424  10.562
25676W        W67687  10.539  22.051   2.892
25677W        W67688  15.089   0.874   1.518
25678W        W67689  13.189  15.674  14.322
25679W        W67690   5.229  15.354   1.928
25680W        W67691  20.839   3.624  11.322
25681W        W67692  15.589  16.984  15.872
25682W        W67693  11.319  23.131   4.392
25683W        W67694  18.969  20.804   0.428
25684W        W67695   9.929  12.414   8.882
25685W        W67696   8.899   6.624   0.918
25686W        W67697   2.159   2.254   2.882
25687W        W67698   8.699   8.624   0.448
25688W        W67699   9.809   5.694  15.612
25689W        W67700   6.939   5.434   3.542
25690W        W67701  14.619   9.004   8.702
25691W        W67702  24.319  21.851   0.378
25692W        W67703  18.469   0.214   1.038
25693W        W67704  25.269   7.194  10.002
25694W        W67705  25.389  21.214  11.492
25695W        W67706   1.409   4.914   9.582
25696W        W67707   4.979   9.264  15.842
25697W        W67708   6.639  11.694   0.078
25698W        W67709  12.309  19.784   8.272
25699W        W67710   7.959   1.694   1.828
25700W        W67711  15.069  24.041  11.592
25701W        W67712  22.149  25.341  12.142
25702W        W67713  23.439  12.094  11.272
25703W        W67714  22.549  23.391  12.122
25704W        W67715   3.649  10.414  11.032
25705W        W67716  11.549  24.151   2.138
25706W        W67717  15.939   6.904   0.578
25707W        W67718   8.849  25.131   9.672
25708W        W67719   3.469   7.404   8.452
25709W        W67720  20.449   0.764   0.888
25710W        W67721  18.879  18.754  11.392
25711W        W67722   9.749  23.451  15.562
25712W        W67723  13.509   9.744   1.358
25713W        W67724   3.789   9.744   2.368
25714W        W67725   2.369   4.934   8.152
25715W        W67726  22.839  12.614  10.882
25716W        W67727   9.919  22.881   2.872
25717W        W67728  25.039   7.934   0.138
25718W        W67729   7.769  10.134   1.978
25719W        W67730  18.359  22.991   2.138
25720W        W67731  20.129  24.531   9.032
25721W        W67732   6.369  15.684   3.482
25722W        W67733  19.609  18.254  11.072
25723W        W67734   0.189  20.264  11.062
25724W        W67735  19.189  25.351  10.142
25725W        W67736  17.399  21.064   7.952
25726W        W67737  10.189  13.194   4.082
25727W        W67738  23.019   9.514   8.392
25728W        W67739   3.819  14.264  15.232
25729W        W67740  15.539  20.584  15.692
25730W        W67741  20.509  10.474   3.692
25731W        W67742  15.069  21.124   1.348
25732W        W67743  10.839  14.244  15.082
25733W        W67744  13.619  18.364   0.468
25734W        W67745  25.089  15.824   2.892
25735W        W67746   9.129   6.894   1.268
25736W        W67747  12.779   1.104   3.012
25737W        W67748   3.379  13.544  10.092
25738W        W67749  11.689   0.824   1.278
25739W        W67750  23.189  12.024   1.358
25740W        W67751  19.309   7.344   9.842
25741W        W67752  12.529  19.244   2.448
25742W        W67753   2.199   2.484   2.278
25743W        W67754   2.619  21.244   9.482
25744W        W67755   6.939  11.814   7.932
25745W        W67756   4.349  16.734  10.352
25746W        W67757  12.319   1.264   2.862
25747W        W67758  24.869  14.884   7.732
25748W        W67759  18.369  10.264   3.892
25749W        W67760  12.519   6.854   4.302
25750W        W67761  22.889   1.764   0.728
25751W        W67762  20.359   5.354   2.188
25752W        W67763  11.719  16.244  14.982
25753W        W67764  10.689   1.854  10.172
25754W        W67765   6.919  23.381   1.678
25755W        W67766   9.679  19.844   3.332
25756W        W67767  10.339   5.304   7.852
25757W        W67768  11.039  12.854   4.022
25758W        W67769  12.949   3.374   9.442
25759W        W67770   2.539   7.814  10.922
25760W        W67771  13.029   9.354   2.268
25761W        W67772  14.279   5.204  10.422
25762W        W67773  18.619  19.274   8.122
25763W        W67774  20.599  20.404   2.822
25764W        W67775  13.649  18.884   1.248
25765W        W67776  17.279  20.894  10.162
25766W        W67777   0.649  14.224   9.722
25767W        W67778  25.399  17.784  11.102
25768W        W67779   0.849  14.004   7.282
25769W        W67780  20.069   6.154  10.962
25770W        W67781  20.769   1.954   8.482
25771W        W67782  20.769  18.214   0.268
25772W        W67783  16.819  23.071   1.258
25773W        W67784  20.089  16.394   3.232
25774W        W67785  10.579  22.301   0.568
25775W        W67786  12.849   6.194   8.882
25776W        W67787  20.649  20.474   1.968
25777W        W67788  16.429   1.074   2.338
25778W        W67789   5.419   3.584   9.342
25779W        W67790   0.129  12.324   2.842
25780W        W67791   3.819  20.784   9.052
25781W        W67792  12.619  25.071   9.232
25782W        W67793   4.859  11.074   9.532
25783W        W67794  12.039  20.874   2.592
25784W        W67795   7.739  21.571   0.148
25785W        W67796  15.329  12.004   3.932
25786W        W67797   4.669   9.964   7.522
25787W        W67798   3.269   3.724   2.732
25788W        W67799   8.439   0.464   2.952
25789W        W67800  17.349  20.754   3.192
25790W        W67801   6.669   0.724   2.612
25791W        W67802  18.849  15.324   0.798
25792W        W67803   9.229  15.254   9.122
25793W        W67804   6.499  14.534  10.882
25794W        W67805  12.739  17.394   0.318
25795W        W67806  18.899  18.984   0.838
25796W        W67807   9.729   7.554   9.722
25797W        W67808  13.559   4.924  10.282
25798W        W67809  21.359  13.514   8.552
25799W        W67810  16.899  22.601   8.342
25800W        W67811  22.719   9.744  10.002
25801W        W67812  12.699  22.381   3.602
25802W        W67813  16.179   8.824   9.712
25803W        W67814  12.809  20.374   2.138
25804W        W67815  19.069  14.584   9.872
25805W        W67816  25.189   8.844   0.478
25806W        W67817  17.949   1.604   1.758
25807W        W67818  22.369   5.464   8.762
25808W        W67819   3.729  25.291  10.882
25809W        W67820  19.709  10.314   1.388
25810W        W67821  18.019  10.354   0.928
25811W        W67822  25.449  12.754  10.102
25812W        W67823  19.929  19.424   8.862
25813W        W67824   8.669  12.194   2.612
25814W        W67825  20.999  16.864  11.062
25815W        W67826   6.639  14.894   9.672
25816W        W67827  21.859  20.184   2.138
25817W        W67828   0.359   7.284  11.232
25818W        W67829   2.949  20.164   4.372
25819W        W67830  25.499   3.514   0.538
25820W        W67831  18.939  10.984   8.722
25821W        W67832   5.879  13.504   1.408
25822W        W67833  10.289  22.741   8.262
25823W        W67834   5.549   1.334   8.532
25824W        W67835  21.239   8.154   9.782
25825W        W67836   3.229  22.731   1.028
25826W        W67837   7.629  11.714   1.098
25827W        W67838   9.559  14.794   4.452
25828W        W67839   2.219   3.104   7.592
25829W        W67840   2.389  19.864   8.462
25830W        W67841  21.429   9.284   9.582
25831W        W67842  25.089   5.744  15.872
25832W        W67843  14.919  13.474  10.662
25833W        W67844  25.169   8.034   8.392
25834W        W67845  16.449  10.004   1.758
25835W        W67846  14.539   3.014   8.772
25836W        W67847  16.069  24.711   7.682
25837W        W67848  16.039  24.451   8.462
25838W        W67849  14.519   5.964   2.158
25839W        W67850   9.679  21.174   4.322
25840W        W67851   2.569  17.304  11.302
25841W        W67852  23.269  21.751  11.532
25842W        W67853  13.829  16.404   0.068
25843W        W67854   6.279  16.534   1.368
25844W        W67855  12.069   1.674  10.292
25845W        W67856  20.609  10.234  10.362
25846W        W67857   5.979  17.704  10.492
25847W        W67858  18.109  22.751   1.318
25848W        W67859  19.199  18.674   9.222
25849W        W67860   5.599  10.054  15.652
25850W        W67861  20.169  15.824   1.118
25851W        W67862  17.839  24.811   1.778
25852W        W67863  16.849  23.791  10.072
25853W        W67864  25.569   8.844   8.822
25854W        W67865  14.299   6.134   1.288
25855W        W67866  21.449   9.964  11.172
25856W        W67867  10.559  20.224  10.372
25857W        W67868  23.769   5.474   3.802
25858W        W67869  18.909  15.154   7.112
25859W        W67870  23.059  11.714   8.172
25860W        W67871   2.999   6.594   6.562
25861W        W67872  12.889   3.284   0.068
25862W        W67873  21.769   6.024  15.612
25863W        W67874  22.189  20.764   1.818
25864W        W67875  12.589  11.114  14.902
25865W        W67876  22.159  21.971   8.442
25866W        W67877  13.429   1.484  15.132
25867W        W67878  25.409  14.904  11.272
25868W        W67879   2.859  21.411   8.442
25869W        W67880   3.539   0.544   1.588
25870W        W67881   4.619  16.084  11.002
25871W        W67882  16.409  15.354   0.678
25872W        W67883  22.759  11.054   9.692
25873W        W67884   6.969  15.464   0.708
25874W        W67885   5.509  14.124  10.272
25875W        W67886  24.679  19.684   9.462
25876W        W67887  23.369  18.914   1.458
25877W        W67888  13.499   4.684   8.812
25878W        W67889   9.769  21.401  11.192
25879W        W67890   9.999   3.964  14.902
25880W        W67891  20.809  13.034   9.352
25881W        W67892  21.999  12.724  10.112
25882W        W67893  19.609   9.594   2.318
25883W        W67894  23.399  10.234   1.138
25884W        W67895  22.319  18.924  10.112
25885W        W67896   2.739   2.834  11.232
25886W        W67897   7.809   2.064  10.502
25887W        W67898  19.009   3.934   2.862
25888W        W67899  14.529  20.354   3.092
25889W        W67900  12.449   0.634   1.608
25890W        W67901  12.149   4.814   0.318
25891W        W67902  19.849  10.914   2.198
25892W        W67903   0.769  16.124   2.962
25893W        W67904  10.449   7.884   9.242
25894W        W67905   8.119  21.284   9.792
25895W        W67906   2.139   0.654   9.912
25896W        W67907  22.449  10.714   9.912
25897W        W67908  21.479   2.194   1.518
25898W        W67909   3.049   2.324   1.998
25899W        W67910   5.969  25.301   1.618
25900W        W67911  14.559  21.294   9.582
25901W        W67912   1.199   0.784   1.608
25902W        W67913  10.109   4.364   3.452
25903W        W67914  10.089   2.434  11.102
25904W        W67915  19.359   1.554  10.332
25905W        W67916   7.799   6.154   9.192
25906W        W67917   0.809  17.064   4.062
25907W        W67918   8.219   1.334   0.608
25908W        W67919  25.449   1.974   3.452
25909W        W67920  22.999  15.214   7.412
25910W        W67921   1.409   3.644   3.322
25911W        W67922  12.159  16.094   0.428
25912W        W67923  21.949   1.504   8.932
25913W        W67924   4.919  19.854   1.568
25914W        W67925  24.859   5.214   1.588
25915W        W67926   9.289  23.231   1.138
25916W        W67927  12.339  13.614   2.248
25917W        W67928  18.779  24.841  11.612
25918W        W67929  24.449  22.651   9.112
25919W        W67930   6.099   9.094  10.502
25920W        W67931  17.809  10.004  15.542
25921W        W67932  15.409  24.041   2.098
25922W        W67933   7.549  22.451  15.622
25923W        W67934   6.669  21.174   1.278
25924W        W67935   1.919   4.514   6.812
25925W        W67936  21.439  14.674  15.102
25926W        W67937  14.279   3.124  15.142
25927W        W67938   2.159  17.354   2.148
25928W        W67939  15.049  23.921   1.708
25929W        W67940   9.049  16.654   2.068
25930W        W67941  19.839  17.914   9.322
25931W        W67942   5.699  12.874   9.072
25932W        W67943  13.859  20.834   1.878
25933W        W67944   3.389  20.364  15.212
25934W        W67945   5.959   1.354   9.462
25935W        W67946   1.859  21.024   1.398
25936W        W67947   1.399  11.914   1.198
25937W        W67948   9.259   1.534   9.202
25938W        W67949  14.839  23.401  10.872
25939W        W67950  19.269   4.944  10.412
25940W        W67951   3.509   5.884   8.452
25941W        W67952  24.529  20.194   9.552
25942W        W67953   2.409  20.524  10.882
25943W        W67954  15.859  25.011  11.072
25944W        W67955  13.589   0.384   9.042
25945W        W67956  10.719  22.581   0.168
25946W        W67957  20.299  19.264   8.492
25947W        W67958   9.389  13.764   0.998
25948W        W67959  15.749   2.354   1.368
25949W        W67960   0.419  19.244   0.398
25950W        W67961   9.529  12.434  14.642
25951W        W67962   5.649   3.194   9.062
25952W        W67963  10.309   5.424   9.002
25953W        W67964   2.079   6.304  14.662
25954W        W67965  14.259  19.024   4.102
25955W        W67966  24.959   5.484   7.242
25956W        W67967  20.869  17.994   8.002
25957W        W67968  17.329  15.514   9.922
25958W        W67969  12.799  15.544   2.792
25959W        W67970  13.249  15.424   0.358
25960W        W67971   7.799  15.794  15.722
25961W        W67972   6.759   6.524   2.772
25962W        W67973  11.329   3.764  14.592
25963W        W67974  22.089   5.314  11.022
25964W        W67975  13.999  21.224   2.278
25965W        W67976   8.749  15.604  15.332
25966W        W67977  10.109   1.974  15.772
25967W        W67978  10.299  18.494   5.102
25968W        W67979   6.249  22.651  15.542
25969W        W67980   8.249  15.124  15.412
25970W        W67981  12.099  16.524  14.692
25971W        W67982  16.459  11.904   0.678
25972W        W67983  25.389   1.564   3.762
25973W        W67984   1.649   6.254   7.682
25974W        W67985  21.419   1.354  10.322
25975W        W67986  12.029   7.864   9.842
25976W        W67987  21.929  21.421  11.422
25977W        W67988  18.349   6.234   2.762
25978W        W67989  16.229   0.094  10.582
25979W        W67990   8.959   9.914  10.652
25980W        W67991   6.579  22.891   8.302
25981W        W67992   8.829   6.304   2.542
25982W        W67993  16.279  14.294  10.172
25983W        W67994   4.399  20.774   0.078
25984W        W67995   7.829  13.154   1.338
25985W        W67996  14.449   0.924   0.098
25986W        W67997  21.479  11.554   8.662
25987W        W67998   5.949  11.214   7.612
25988W        W67999   2.209  23.641   2.552
25989W        W68000   4.849  19.934  11.492
25990W        W68001   0.829  20.034   1.828
25991W        W68002  22.279   3.904   9.752
25992W        W68003   5.639   1.354   1.468
25993W        W68004   6.389   6.794   1.338
25994W        W68005  15.849  14.974  11.192
25995W        W68006  23.839  17.364   8.382
25996W        W68007  23.039  14.314   3.422
25997W        W68008  21.539  20.494  10.252
25998W        W68009  24.999   1.034   3.112
25999W        W68010  10.899  10.144  14.262
26000W        W68011   8.709  17.774  10.902
26001W        W68012  24.099   9.284   8.382
26002W        W68013  21.329   0.844   0.408
26003W        W68014   8.859   8.984   2.318
26004W        W68015   0.759  20.084  11.722
26005W        W68016  17.049  20.694   7.932
26006W        W68017   9.479  18.504   0.808
26007W        W68018  19.639   6.654  11.002
26008W        W68019  18.769   2.364   2.752
26009W        W68020   3.709   8.304   8.352
26010W        W68021   7.419   9.694   9.942
26011W        W68022   0.319  19.444  10.992
26012W        W68023   7.239   0.074   9.702
26013W        W68024  12.399   8.074  10.232
26014W        W68025   1.329  20.894  10.772
26015W        W68026  25.379  24.071  11.972
26016W        W68027  12.679   8.734   2.348
26017W        W68028  15.009  23.481   8.632
26018W        W68029  21.159  22.941   7.092
26019W        W68030   5.479  12.324  14.802
26020W        W68031   4.079   2.854   7.562
26021W        W68032  22.019   4.344   2.358
26022W        W68033   5.779  11.264   1.178
26023W        W68034  12.909  17.874   2.038
26024W        W68035  14.099   1.064  15.542
26025W        W68036  16.849  22.081   0.868
26026W        W68037  12.779   4.804  14.592
26027W        W68038   8.969   9.534   1.168
26028W        W68039  25.259   5.884   8.162
26029W        W68040   2.539  20.534   2.088
26030W        W68041   9.849  19.674   2.368
26031W        W68042  14.909   9.284   1.178
26032W        W68043  10.719  17.134  11.462
26033W        W68044   5.689  21.194   3.542
26034W        W68045  19.119   8.404   9.842
26035W        W68046  11.749   3.964   0.008
26036W        W68047  17.869  12.764   9.932
26037W        W68048   4.229   5.644   2.188
26038W        W68049   5.889   5.484   7.002
26039W        W68050  24.389  18.314   8.992
26040W        W68051   4.109  13.134   0.028
26041W        W68052  19.959   0.404  11.822
26042W        W68053  23.529   3.724   3.612
26043W        W68054   7.709  22.471   2.408
26044W        W68055  12.519  23.031   2.972
26045W        W68056  19.659  12.074   0.788
26046W        W68057  20.989   7.914   9.412
26047W        W68058   3.659  18.054  10.882
26048W        W68059  24.809  22.541   9.862
26049W        W68060  22.879  24.151   8.452
26050W        W68061   6.419  20.724   8.492
26051W        W68062  24.429  23.671   9.962
26052W        W68063  19.439  11.164   0.428
26053W        W68064   0.199  20.394   9.442
26054W        W68065  24.289   1.484   3.212
26055W        W68066  16.689  20.934   1.378
26056W        W68067  17.259   4.424   1.238
26057W        W68068   1.709  24.611   9.502
26058W        W68069  11.339   4.044   3.732
26059W        W68070  12.589  25.461   8.952
26060W        W68071  11.489  20.264   0.908
26061W        W68072  17.929  21.621   9.322
26062W        W68073  15.169  13.764   9.432
26063W        W68074   5.169   7.974   3.222
26064W        W68075  14.399  18.894   0.068
26065W        W68076  10.849  18.984   9.862
26066W        W68077   6.099  19.254   3.342
26067W        W68078   9.139  13.864   4.552
26068W        W68079  16.409  15.874   8.902
26069W        W68080  16.719  21.054   0.698
26070W        W68081   5.119  24.271   9.092
26071W        W68082  16.629   7.424   1.078
26072W        W68083  12.209   6.294   2.602
26073W        W68084  23.679   7.734   3.092
26074W        W68085  12.099  22.211   0.268
26075W        W68086  16.079  24.311   0.278
26076W        W68087   3.169  13.874  11.202
26077W        W68088  12.599   3.804   3.672
26078W        W68089  24.809   3.904   8.962
26079W        W68090   5.889   0.334   2.458
26080W        W68091  10.359   0.804   2.502
26081W        W68092  19.569   8.774  15.662
26082W        W68093   2.199  11.534   0.318
26083W        W68094   0.549  24.271  10.242
26084W        W68095   2.639  14.224   3.262
26085W        W68096  24.989  20.994   1.778
26086W        W68097  16.519  23.431  10.882
26087W        W68098  23.539  14.854   2.278
26088W        W68099  16.409   9.934   9.562
26089W        W68100  20.609   9.914   7.812
26090W        W68101   2.309   9.064  15.712
26091W        W68102  18.279   8.494  15.682
26092W        W68103  10.059   9.614  15.642
26093W        W68104  21.169   0.374   2.632
26094W        W68105  13.689   8.144   7.942
26095W        W68106  17.239  13.004   2.902
26096W        W68107  15.969  16.264   8.782
26097W        W68108   8.019   5.354  14.122
26098W        W68109   0.189  22.441   1.518
26099W        W68110  19.519  23.241  11.422
26100W        W68111   1.419  12.974   8.262
26101W        W68112   1.789   5.024  15.712
26102W        W68113  12.799   0.634   1.128
26103W        W68114   7.639  17.214   9.912
26104W        W68115   2.539  14.814   8.122
26105W        W68116  10.739   7.684   9.722
26106W        W68117  21.289   3.014   2.058
26107W        W68118   6.559  21.601   7.922
26108W        W68119   4.179   8.594   0.758
26109W        W68120   6.279   0.414   1.648
26110W        W68121  12.129   3.474   9.112
26111W        W68122   9.649   0.964  15.372
26112W        W68123  22.189  15.264   2.542
26113W        W68124  10.589   2.434   1.698
26114W        W68125  21.569   4.084   2.218
26115W        W68126   7.989   7.674   9.922
26116W        W68127   3.959  18.734   1.118
26117W        W68128   1.649   1.314  15.472
26118W        W68129  22.109   1.614   3.292
26119W        W68130  25.149   1.504   8.622
26120W        W68131  12.149  21.581   8.682
26121W        W68132  23.689   4.424  11.462
26122W        W68133   7.639  24.421   8.572
26123W        W68134   3.799  24.321  15.862
26124W        W68135   4.939  25.131   0.058
26125W        W68136   7.779   1.534   2.942
26126W        W68137  10.799  21.401   2.088
26127W        W68138  19.319  21.234   9.112
26128W        W68139   2.109   0.994   8.872
26129W        W68140  11.109   7.994   9.512
26130W        W68141  15.469   2.014   9.922
26131W        W68142  24.019   7.074   9.782
26132W        W68143   0.169  18.344   8.572
26133W        W68144  12.029  24.071  15.472
26134W        W68145   0.749  16.114   1.538
26135W        W68146   4.509   0.754   9.512
26136W        W68147  16.959  10.254   3.562
26137W        W68148  22.529   3.014   9.982
26138W        W68149  13.309   7.234   2.118
26139W        W68150  16.069  15.504   3.772
26140W        W68151  19.539  21.431  11.682
26141W        W68152  16.399   1.644   9.682
26142W        W68153   9.949  21.064  10.802
26143W        W68154  16.279   4.334  15.542
26144W        W68155  21.989   8.724   3.482
26145W        W68156  22.549   8.694   9.892
26146W        W68157   0.539  21.581   3.172
26147W        W68158   8.029   8.554   2.692
26148W        W68159   8.829  22.081   9.242
26149W        W68160   8.479   4.274   0.688
26150W        W68161   1.409   7.084   3.282
26151W        W68162  24.159  15.304   1.518
26152W        W68163   4.589   8.964   9.402
26153W        W68164  24.059  12.844   1.478
26154W        W68165   6.659  16.814   2.458
26155W        W68166  15.319  14.514   4.482
26156W        W68167   7.069   0.314  15.322
26157W        W68168   3.929  13.954   1.618
26158W        W68169  12.669  23.031  15.492
26159W        W68170  10.759  19.694   0.078
26160W        W68171   5.289   2.004   4.042
26161W        W68172  16.549   3.474   1.178
26162W        W68173  11.209   1.754  14.922
26163W        W68174   0.449  20.814   0.758
26164W        W68175   4.999   8.714   0.158
26165W        W68176   3.989   3.514   7.232
26166W        W68177  19.119  19.934  10.582
26167W        W68178  13.039   5.964  15.092
26168W        W68179  23.229  10.824   1.908
26169W        W68180  15.499   9.584  10.992
26170W        W68181   6.839   1.824   1.728
26171W        W68182  11.299   5.674  15.052
26172W        W68183  13.159   6.064  10.152
26173W        W68184   2.769  13.684   1.208
26174W        W68185   1.859   2.034   3.192
26175W        W68186   5.719  24.101   0.398
26176W        W68187   1.489   6.794   6.072
26177W        W68188  25.349  20.404   9.692
26178W        W68189  25.139  19.424   8.042
26179W        W68190  24.339  15.614   2.582
26180W        W68191  23.389   6.384  10.352
26181W        W68192   3.079   7.634   7.532
26182W        W68193  12.269   2.564  10.612
26183W        W68194   8.959   5.354   1.628
26184W        W68195  11.879  15.984  14.592
26185W        W68196  23.439   5.274   1.798
26186W        W68197   7.569  17.724  11.482
26187W        W68198  10.049  19.724  10.972
26188W        W68199   4.549  16.674   1.768
26189W        W68200  19.269  11.244   9.082
26190W        W68201   6.439   7.604  14.862
26191W        W68202  12.799  21.344   1.808
26192W        W68203   9.899   1.034  10.052
26193W        W68204   4.719  22.131   3.052
26194W        W68205  21.149  20.154   9.002
26195W        W68206   0.099  16.144  10.882
26196W        W68207   2.539   5.794   1.878
26197W        W68208   0.699  10.484   2.118
26198W        W68209   4.059   8.814   0.338
26199W        W68210  15.669  18.314  10.242
26200W        W68211   7.879   3.734   8.502
26201W        W68212  15.429  17.084   3.432
26202W        W68213   6.759  15.884   3.202
26203W        W68214  11.419   6.894   8.872
26204W        W68215  17.629  20.934   0.598
26205W        W68216   5.399   3.214   0.138
26206W        W68217   4.419   4.334   2.542
26207W        W68218  23.619  24.951   8.002
26208W        W68219  19.319   2.514   1.338
26209W        W68220   8.669  19.634  15.622
26210W        W68221   3.869  23.431   9.152
26211W        W68222  21.239  13.604  10.052
26212W        W68223  22.069  18.924  11.742
26213W        W68224  19.259  15.244  10.702
26214W        W68225   0.189  20.934   3.532
26215W        W68226  14.129  20.734   4.182
26216W        W68227  23.369   3.054  10.682
26217W        W68228  10.179  20.574   0.678
26218W        W68229   1.209   2.254  15.412
26219W        W68230  24.869   8.824   0.868
26220W        W68231  15.889   9.654  14.952
26221W        W68232  18.399   2.904  15.012
26222W        W68233   6.579   2.714   1.208
26223W        W68234   6.919  18.314   2.148
26224W        W68235  25.539   3.194   1.518
26225W        W68236  13.709  10.834  15.652
26226W        W68237  21.039  18.464   8.152
26227W        W68238   5.259   7.744  14.852
26228W        W68239  22.199   8.194   1.518
26229W        W68240  12.839  20.874  11.472
26230W        W68241   2.829  20.684   2.852
26231W        W68242  13.939  16.544   4.692
26232W        W68243  11.729   3.924  14.292
26233W        W68244  21.859  15.364   8.812
26234W        W68245  13.899  11.824  15.432
26235W        W68246   1.999   4.544   0.098
26236W        W68247   4.399  20.204   0.128
26237W        W68248   1.929   2.754   4.052
26238W        W68249  13.619   4.374  10.902
26239W        W68250  17.399   3.904   2.468
26240W        W68251   5.299   3.704   7.922
26241W        W68252   0.479  12.794   2.248
26242W        W68253  18.229   5.244   1.668
26243W        W68254   3.779  17.614   7.542
26244W        W68255   2.499   8.984   9.302
26245W        W68256   6.229   5.574   0.368
26246W        W68257  16.069   2.844   2.348
26247W        W68258  17.349  22.361   8.272
26248W        W68259  21.009   5.114   7.902
26249W        W68260  19.649   9.984   3.382
26250W        W68261   3.249  20.094   3.962
26251W        W68262  17.679   0.354   8.542
26252W        W68263  10.919  25.401   8.302
26253W        W68264  15.979  11.524  15.702
26254W        W68265   6.489   2.244   9.322
26255W        W68266   9.759  14.364   4.232
26256W        W68267   0.059  19.244   1.738
26257W        W68268  23.979  14.554   2.048
26258W        W68269   1.899  21.761   9.492
26259W        W68270  19.939  11.814   0.428
26260W        W68271  21.779   3.984   9.132
26261W        W68272   1.289   0.104   9.762
26262W        W68273  19.309   6.104   1.778
26263W        W68274   7.429   8.354  14.772
26264W        W68275  18.339   3.014   7.952
26265W        W68276  24.459  21.421  11.542
26266W        W68277  22.109   9.324  10.662
26267W        W68278  21.029  22.371   3.532
26268W        W68279  19.439  20.344   1.948
26269W        W68280   8.599  18.764  10.492
26270W        W68281   4.409  10.914   2.178
26271W        W68282  21.099   3.174   0.948
26272W        W68283   5.599  25.151  10.552
26273W        W68284  15.169  13.294  10.272
26274W        W68285  10.339   5.184   9.522
26275W        W68286   8.229  20.624  10.062
26276W        W68287  17.719   9.464   0.978
26277W        W68288  19.229  10.154   1.158
26278W        W68289   6.139   2.734  10.532
26279W        W68290  21.639   8.444   8.272
26280W        W68291   5.209   7.104   1.348
26281W        W68292  13.979  15.634  10.092
26282W        W68293   3.529  12.264   1.368
26283W        W68294   8.549  15.724   1.928
26284W        W68295  10.869  12.994   2.448
26285W        W68296   9.649   9.804   0.058
26286W        W68297   2.709  12.364   1.518
26287W        W68298   1.269  20.314   1.828
26288W        W68299  10.249  21.901   0.378
26289W        W68300  24.069  16.284   2.872
26290W        W68301   9.659   7.494   0.468
26291W        W68302  16.159  25.591  10.142
26292W        W68303  10.479  23.951   2.722
26293W        W68304  10.739   5.134  10.192
26294W        W68305   0.689  19.224   9.012
26295W        W68306   2.629  14.704  10.312
26296W        W68307   1.649  21.491   9.152
26297W        W68308   9.319   9.164   8.682
26298W        W68309  15.749   1.004   1.478
26299W        W68310   4.269   2.494   7.242
26300W        W68311   2.659  12.514   7.982
26301W        W68312  19.869   2.374  10.492
26302W        W68313  13.899  18.134   8.812
26303W        W68314  23.829   7.734   3.602
26304W        W68315   3.419  19.974   1.778
26305W        W68316   9.209   9.964   2.378
26306W        W68317   4.339  20.514   7.902
26307W        W68318  19.559  11.304   2.048
26308W        W68319  20.809  11.634  15.672
26309W        W68320   3.259   1.884   7.922
26310W        W68321  14.929  15.134  10.212
26311W        W68322   6.949   9.424  10.542
26312W        W68323   4.289   9.614   1.868
26313W        W68324   1.259   8.644   2.018
26314W        W68325   8.749   6.904  10.122
26315W        W68326   9.779  25.091  10.782
26316W        W68327  12.129   5.804  14.732
26317W        W68328   2.379  19.634  11.222
26318W        W68329   9.969   1.214   2.532
26319W        W68330  11.759  21.134   0.918
26320W        W68331  14.759  22.741   3.012
26321W        W68332  13.889  15.894   0.048
26322W        W68333   9.219  17.344   3.372
26323W        W68334  10.929  22.291   4.212
26324W        W68335  14.219   8.174   2.368
26325W        W68336   1.999  16.304   1.088
26326W        W68337  15.239   7.684   3.632
26327W        W68338   9.099   3.164   9.652
26328W        W68339  12.449  12.754   2.542
26329W        W68340  13.669  19.854   0.398
26330W        W68341  12.469  23.771  11.432
26331W        W68342  20.939  11.384   4.192
26332W        W68343  18.059  22.861   0.178
26333W        W68344  25.559   7.534  11.012
26334W        W68345  24.889   3.444   7.062
26335W        W68346  24.279  17.284  12.642
26336W        W68347  25.329   6.734   8.372
26337W        W68348   0.289   1.114  15.372
26338W        W68349  11.729   6.604   9.552
26339W        W68350  15.919   8.364   7.952
26340W        W68351  11.579  21.471  15.462
26341W        W68352  23.149  18.104   8.242
26342W        W68353   5.929  19.814   8.042
26343W        W68354   2.399   2.424   6.802
26344W        W68355   6.079  12.334   8.842
26345W        W68356   7.179   5.274  11.062
26346W        W68357  12.879  15.094   3.012
26347W        W68358  23.759  20.584   8.012
26348W        W68359  14.549  23.491   7.812
26349W        W68360   9.209   0.324   3.652
26350W        W68361   2.489  20.954   3.192
26351W        W68362  24.879   1.704  12.182
26352W        W68363  17.529   1.454   8.432
26353W        W68364  16.529   9.544   8.652
26354W        W68365  17.389  23.481   3.272
26355W        W68366  10.059   5.834   0.698
26356W        W68367   4.859   0.354   1.738
26357W        W68368   8.189   3.024   1.828
26358W        W68369  18.079  18.574   9.092
26359W        W68370   8.579  17.334   8.402
26360W        W68371  19.699  24.551   9.242
26361W        W68372   8.329   8.284  15.092
26362W        W68373  21.439  16.054   2.368
26363W        W68374  10.029   1.964   0.488
26364W        W68375   8.809  19.154   9.022
26365W        W68376  12.119  12.694   9.452
26366W        W68377  24.629  11.124   1.618
26367W        W68378  19.779  24.551  15.462
26368W        W68379   0.359   1.604  15.412
26369W        W68380   3.929  14.994   8.122
26370W        W68381  13.269  19.634   9.102
26371W        W68382   8.449  22.681  15.212
26372W        W68383  20.729  17.864  10.212
26373W        W68384  15.319  18.694  10.452
26374W        W68385   6.729  16.624  15.182
26375W        W68386   4.299   5.224  15.752
26376W        W68387  15.679  19.924  11.102
26377W        W68388  19.789  19.304   1.188
26378W        W68389  20.949  21.034   1.298
26379W        W68390  16.949  24.351   0.088
26380W        W68391   0.259  22.261   4.312
26381W        W68392   5.449  20.734   9.532
26382W        W68393  24.629   4.814   8.092
26383W        W68394   2.149   1.254  15.702
26384W        W68395   8.779  20.454   9.082
26385W        W68396   9.439  16.464   9.202
26386W        W68397   5.809   5.514  15.492
26387W        W68398   2.189   0.404  15.342
26388W        W68399  14.879  13.964  14.532
26389W        W68400   2.209   7.174   8.612
26390W        W68401  11.869  22.181   3.622
26391W        W68402  14.379  16.364  15.172
26392W        W68403   9.079   4.214   8.712
26393W        W68404   4.629  11.824  10.242
26394W        W68405  24.279   5.764  15.582
26395W        W68406  21.169   1.254   4.102
26396W        W68407  23.909  20.694  10.132
26397W        W68408   3.219   9.374  14.802
26398W        W68409  11.439  20.504   4.432
26399W        W68410  22.869  15.974   2.228
26400W        W68411   8.709  24.361   9.452
26401W        W68412  11.259  15.344   0.188
26402W        W68413   0.369   9.044   2.532
26403W        W68414   3.379  16.574  10.642
26404W        W68415   7.979  24.201   3.502
26405W        W68416  20.989  12.064   9.852
26406W        W68417  14.079  23.711  11.742
26407W        W68418  22.289   0.144  12.372
26408W        W68419  16.989  19.884  10.552
26409W        W68420   7.059  19.704   2.602
26410W        W68421  23.789  16.844  10.222
26411W        W68422  14.659   3.874   0.578
26412W        W68423  24.209   5.224   3.682
26413W        W68424  15.649   9.064   3.762
26414W        W68425   1.899  13.184   9.092
26415W        W68426   5.269  21.861   3.212
26416W        W68427  21.979  15.964   8.552
26417W        W68428   0.839  12.734   3.532
26418W        W68429   2.759  18.004   3.962
26419W        W68430   6.699  15.954   4.152
26420W        W68431   4.759  15.244   0.548
26421W        W68432   9.529  22.781   3.172
26422W        W68433   2.869   1.644   3.912
26423W        W68434  23.109  10.074   8.992
26424W        W68435  15.759  18.714   2.712
26425W        W68436   7.419  14.254  15.622
26426W        W68437  18.579  13.914   0.888
26427W        W68438  18.799  10.544   1.608
26428W        W68439  10.189  13.494   8.812
26429W        W68440   5.749  18.434   2.812
26430W        W68441  14.509   5.354  15.742
26431W        W68442  23.989  13.304   0.668
26432W        W68443  21.009   7.634  10.762
26433W        W68444   6.259   3.364  15.132
26434W        W68445  17.379  14.934  10.072
26435W        W68446  22.039  10.774   8.672
26436W        W68447  20.249   4.164   7.292
26437W        W68448  21.069  24.431   9.112
26438W        W68449   1.559  14.424   8.542
26439W        W68450  14.329  15.694   1.748
26440W        W68451  23.439  16.714   1.918
26441W        W68452  11.589  14.824   3.802
26442W        W68453  14.889   1.494   3.432
26443W        W68454  18.739  13.744   9.772
26444W        W68455  20.019  18.114   2.632
26445W        W68456  22.279  19.404   8.142
26446W        W68457  10.669   2.844  14.802
26447W        W68458  21.819   2.244  10.862
26448W        W68459   3.439  19.084  11.932
26449W        W68460   5.629  18.174  15.842
26450W        W68461   8.379  22.991   8.662
26451W        W68462   3.569  17.464   8.912
26452W        W68463  23.139  19.354  11.092
26453W        W68464  25.389  12.934  14.842
26454W        W68465  13.349  16.904   4.272
26455W        W68466   5.489  14.884   8.502
26456W        W68467  10.439   8.454   2.188
26457W        W68468  13.889  19.454   0.658
26458W        W68469  14.169   0.864   2.348
26459W        W68470  15.349  19.314   0.168
26460W        W68471  21.669  17.404  11.892
26461W        W68472  20.779  18.544   7.342
26462W        W68473   6.699   4.534   3.632
26463W        W68474  15.479   3.264   8.912
26464W        W68475  13.049   3.864   2.972
26465W        W68476   9.839  23.541   2.248
26466W        W68477  15.929  14.804   2.358
26467W        W68478   2.889  18.784  11.172
26468W        W68479  14.079   4.124   1.038
26469W        W68480  10.599   6.944   8.532
26470W        W68481  23.489   8.114   6.912
26471W        W68482  14.859   2.114   8.572
26472W        W68483  16.119   0.144  15.482
26473W        W68484  16.119  21.711   9.892
26474W        W68485  13.269   4.184   2.118
26475W        W68486  15.799   1.044   3.682
26476W        W68487  25.009  18.134  11.122
26477W        W68488   6.359  11.194  10.602
26478W        W68489   5.699   8.944   8.372
26479W        W68490   0.639   9.824   8.362
26480W        W68491  21.479  17.444   9.332
26481W        W68492  14.139  15.234  10.912
26482W        W68493  16.849  23.791  10.962
26483W        W68494  12.659  21.411  10.892
26484W        W68495   5.069  10.024  15.482
26485W        W68496   4.249  22.721  10.302
26486W        W68497  11.929  20.674  15.562
26487W        W68498  23.189   6.554   7.572
26488W        W68499  20.809   3.264  10.052
26489W        W68500   5.029  19.564   9.692
26490W        W68501   6.819   3.064   3.292
26491W        W68502   2.329  16.624   8.612
26492W        W68503  11.549   8.484   1.458
26493W        W68504  20.319  15.454  10.142
26494W        W68505  22.009   3.064   1.058
26495W        W68506   8.639  12.444   1.488
26496W        W68507   7.549  13.234   2.762
26497W        W68508  11.529   6.544   0.198
26498W        W68509  21.579   0.474  15.672
26499W        W68510   7.689  24.011   7.822
26500W        W68511   6.259  19.774   8.982
26501W        W68512  14.449  16.834   8.482
26502W        W68513   3.789  24.771   1.458
26503W        W68514  22.449   2.474  15.322
26504W        W68515   8.849   9.124   8.422
26505W        W68516  12.329  24.421  15.092
26506W        W68517  13.879  21.501   9.022
26507W        W68518  24.879  23.861   1.058
26508W        W68519  10.269  25.091   0.018
26509W        W68520  24.269  10.964   8.382
26510W        W68521  16.009   8.384   0.488
26511W        W68522  10.819   2.724   9.192
26512W        W68523  16.259   2.584   2.732
26513W        W68524   5.899   5.494   2.962
26514W        W68525   5.829  12.344  15.212
26515W        W68526  20.349   8.654   9.452
26516W        W68527   7.989  12.954  10.502
26517W        W68528   4.299  14.954   1.688
26518W        W68529   0.499   1.104   2.428
26519W        W68530  19.339   5.634  11.062
26520W        W68531  15.369  25.341   3.282
26521W        W68532  23.869  17.864  12.422
26522W        W68533  23.259  20.694   8.782
26523W        W68534  24.829   3.084   2.842
26524W        W68535   3.249  15.034  14.992
26525W        W68536  11.039  18.294   9.052
26526W        W68537  17.679   9.834   0.668
26527W        W68538   8.239   9.254  15.472
26528W        W68539   0.829   0.144  11.472
26529W        W68540   7.739   0.554   0.338
26530W        W68541  15.699   8.574   1.278
26531W        W68542  12.059  14.904   1.738
26532W        W68543   0.509  20.224   9.862
26533W        W68544   8.759   1.454   9.242
26534W        W68545  11.579   5.544  14.302
26535W        W68546  20.919   9.654  10.272
26536W        W68547  17.239  21.841   0.408
26537W        W68548   1.039  25.401  10.922
26538W        W68549  12.579  16.814   9.272
26539W        W68550   4.939  20.664   1.298
26540W        W68551   9.169   2.754   0.258
26541W        W68552  17.939   7.004   1.138
26542W        W68553  21.329  24.291   0.768
26543W        W68554  16.149  14.714   0.178
26544W        W68555  16.449   7.974   9.892
26545W        W68556  11.579  12.114   2.178
26546W        W68557  22.089  24.731   2.158
26547W        W68558  21.129   3.684   0.938
26548W        W68559  23.599   3.074   3.162
26549W        W68560  14.979  14.854   9.162
26550W        W68561  20.309  23.081   2.238
26551W        W68562  11.879   7.004   0.938
26552W        W68563  12.249  15.154   4.182
26553W        W68564  13.779  20.614   0.158
26554W        W68565  13.709  23.911   0.018
26555W        W68566  21.479  25.471   0.648
26556W        W68567  21.879  18.524   0.368
26557W        W68568   2.499  13.764   1.848
26558W        W68569  11.949   1.534   7.642
26559W        W68570  22.629   1.634   0.248
26560W        W68571  14.969  24.621  11.622
26561W        W68572   6.709   8.264   9.792
26562W        W68573   7.339   8.674   3.652
26563W        W68574   1.389  21.004   2.942
26564W        W68575   3.319  20.024  10.672
26565W        W68576  12.949   6.854   2.028
26566W        W68577   9.799   9.144   0.918
26567W        W68578   5.469  12.094  10.462
26568W        W68579   4.209   2.684   8.612
26569W        W68580  23.999  20.474   9.602
26570W        W68581   6.159  15.754  10.092
26571W        W68582  15.219  22.311   4.802
26572W        W68583  21.199   7.994   2.782
26573W        W68584  13.519  23.771   1.998
26574W        W68585  22.149  11.814  15.012
26575W        W68586  13.089  12.944  14.262
26576W        W68587  11.719   7.584   0.418
26577W        W68588   7.959  22.071   9.312
26578W        W68589   6.159   8.704   1.468
26579W        W68590  17.619  14.604   2.642
26580W        W68591  20.319  17.494  11.842
26581W        W68592   7.609  11.464   3.242
26582W        W68593  10.029  25.261   0.438
26583W        W68594  20.259   9.534   0.188
26584W        W68595  20.119   4.124  10.032
26585W        W68596   4.519   0.834   8.532
26586W        W68597  14.379   3.804   9.072
26587W        W68598   0.479  24.011   7.552
26588W        W68599  10.429  24.781   3.272
26589W        W68600   0.239  23.761   3.922
26590W        W68601  16.599  25.481   1.518
26591W        W68602  11.709   7.274   2.732
26592W        W68603  17.609  17.104   2.178
26593W        W68604   2.429   4.324  15.282
26594W        W68605   5.619  24.571  10.532
26595W        W68606   4.949   4.944   1.208
26596W        W68607  23.689  22.531   0.188
26597W        W68608  18.359  24.231  12.272
26598W        W68609   8.259  16.894   2.862
26599W        W68610   0.219  10.114   1.618
26600W        W68611  11.159  16.704  10.192
26601W        W68612  13.759   7.334   0.978
26602W        W68613   0.359   1.454   1.498
26603W        W68614  17.449  21.354   1.378
26604W        W68615   3.109   2.794   0.498
26605W        W68616  25.009   8.164   9.312
26606W        W68617   6.089  14.184   1.558
26607W        W68618  19.509   3.084   8.812
26608W        W68619   3.669  11.474  14.722
26609W        W68620  19.279  17.874   3.202
26610W        W68621   7.529  17.634   2.622
26611W        W68622  23.649   7.574   8.952
26612W        W68623  14.899   7.954  14.822
26613W        W68624  21.699  22.291   9.952
26614W        W68625  24.769  11.524   9.922
26615W        W68626  19.759   3.234  15.652
26616W        W68627  11.109  10.914   0.368
26617W        W68628  25.249   7.614   7.742
26618W        W68629  18.799  16.274  11.362
26619W        W68630   4.719  20.514   2.712
26620W        W68631  15.299  19.484   3.612
26621W        W68632  25.409  20.194   9.162
26622W        W68633  16.069   1.834   0.948
26623W        W68634  15.119  10.054   2.822
26624W        W68635   7.709  10.544  10.352
26625W        W68636  16.299   4.734   8.672
26626W        W68637   1.989   1.884  11.042
26627W        W68638   5.359  14.404  15.542
26628W        W68639  17.299  11.494   8.292
26629W        W68640   2.639  22.451   0.378
26630W        W68641  17.579  11.764  10.312
26631W        W68642  15.419  24.831   0.508
26632W        W68643  25.039   0.934  10.092
26633W        W68644   0.909  22.901   0.958
26634W        W68645   8.049  22.841  14.872
26635W        W68646  24.009  10.744   0.818
26636W        W68647  16.999   1.434  10.642
26637W        W68648  21.299  20.964  10.682
26638W        W68649   1.879  15.454   2.812
26639W        W68650  11.289  18.264   0.838
26640W        W68651   0.439   0.164  15.722
26641W        W68652  22.899  16.344   9.412
26642W        W68653   1.549   5.314  15.432
26643W        W68654  22.889  15.424   8.682
26644W        W68655  13.559  12.444   3.682
26645W        W68656  24.679   1.904   1.908
26646W        W68657  13.349  24.221   2.108
26647W        W68658  18.569   1.924   2.982
26648W        W68659   3.799  16.574  11.522
26649W        W68660  18.619   7.434   3.402
26650W        W68661  20.559  14.434   1.358
26651W        W68662  20.509  12.074   9.542
26652W        W68663  12.299  11.104   1.948
26653W        W68664  24.699  16.934   1.798
26654W        W68665   2.859   4.574  10.002
26655W        W68666   2.619  18.594   9.222
26656W        W68667  25.219   7.184   1.148
26657W        W68668  10.409   7.494  10.562
26658W        W68669  23.189   9.124   1.448
26659W        W68670  18.109   4.874  10.732
26660W        W68671  11.149   2.844   0.388
26661W        W68672  20.169  20.514   7.032
26662W        W68673   0.409  11.814   0.268
26663W        W68674   3.329  17.484   0.808
26664W        W68675   8.409  16.134   1.038
26665W        W68676  21.539  24.521  12.012
26666W        W68677  14.879  18.644   9.392
26667W        W68678   0.599   9.224   0.738
26668W        W68679  22.719  12.504   2.328
26669W        W68680   1.619   2.784   2.138
26670W        W68681  20.699   5.054  10.542
26671W        W68682  20.829  14.044   2.652
26672W        W68683   7.149  24.481   8.332
26673W        W68684  21.859  12.754  11.292
26674W        W68685   9.009  11.314  15.012
26675W        W68686  21.909  10.414   2.862
26676W        W68687   9.159   0.524   8.362
26677W        W68688  10.829  25.531   2.138
26678W        W68689  23.069  17.934  11.332
26679W        W68690   1.109  16.504   9.942
26680W        W68691  21.249   2.224   8.662
26681W        W68692  25.139   9.254   2.652
26682W        W68693   2.969  14.694  11.522
26683W        W68694   8.149   7.984   8.982
26684W        W68695   5.549  24.211  11.792
26685W        W68696  12.509  10.444   4.452
26686W        W68697   6.159  16.424   2.572
26687W        W68698   2.709  22.841  10.272
26688W        W68699   6.079  22.451   3.272
26689W        W68700   9.509  11.794  11.272
26690W        W68701  12.089  14.104   0.688
26691W        W68702  13.889   5.974   0.188
26692W        W68703  21.719  25.141  15.662
26693W        W68704  25.329   2.424   1.078
26694W        W68705  11.609   7.204   3.742
26695W        W68706  22.969   3.394  11.352
26696W        W68707   7.209   2.394   0.498
26697W        W68708   7.179   7.274   8.552
26698W        W68709   5.549  20.354  11.972
26699W        W68710  10.139   5.364   3.432
26700W        W68711   5.819   9.524   7.582
26701W        W68712  17.599   4.224  10.372
26702W        W68713  11.449   3.154  10.292
26703W        W68714   9.479   6.244  10.322
26704W        W68715   8.539   7.404  10.372
26705W        W68716  17.139  14.254   9.292
26706W        W68717   2.539   4.294  10.592
26707W        W68718   5.939  18.594   4.482
26708W        W68719   3.059  16.294   1.808
26709W        W68720   8.749  22.161   0.518
26710W        W68721  12.119  23.181   0.438
26711W        W68722  21.129  16.274   8.862
26712W        W68723  13.819   1.454  15.472
26713W        W68724  22.119   3.904  10.622
26714W        W68725  23.729  21.204   2.702
26715W        W68726  17.989   0.044   2.408
26716W        W68727  11.719   1.914  14.752
26717W        W68728   2.909   3.534   7.062
26718W        W68729   9.589  10.714   1.418
26719W        W68730  18.109  14.974  11.242
26720W        W68731  15.159  16.464   2.922
26721W        W68732   8.029  14.504   0.908
26722W        W68733  22.459  24.381   2.208
26723W        W68734  20.259  10.254   8.052
26724W        W68735  16.919  15.484  10.762
26725W        W68736  18.369  24.301   7.762
26726W        W68737   8.729  23.101   0.678
26727W        W68738   5.239  18.324   0.908
26728W        W68739  19.539  17.804  11.342
26729W        W68740   8.179  19.424  15.622
26730W        W68741  25.419  19.854   2.418
26731W        W68742  23.019  17.004   8.312
26732W        W68743   0.041  17.654   0.068
26733W        W68744   0.001  15.834   7.292
26734W        W68745  21.799   6.244  10.832
26735W        W68746   8.509  14.704   4.472
26736W        W68747  10.909  21.014   2.962
26737W        W68748  13.959  18.974   3.152
26738W        W68749   9.769  22.331   9.662
26739W        W68750  18.649  17.694  11.572
26740W        W68751   3.099   5.484   0.228
26741W        W68752  10.809  13.704   1.918
26742W        W68753   0.021   6.444   6.932
26743W        W68754  23.539   4.914   7.252
26744W        W68755   2.699  14.374   9.282
26745W        W68756  24.739  13.294   3.122
26746W        W68757  18.939  24.421   1.918
26747W        W68758   7.859  17.964   8.752
26748W        W68759   4.359   3.194   0.188
26749W        W68760   3.329  14.214   0.418
26750W        W68761   3.349  18.424   2.922
26751W        W68762  12.869  15.404   9.272
26752W        W68763  15.289   6.974   1.408
26753W        W68764  20.049   1.424   1.488
26754W        W68765  17.169   6.254   3.162
26755W        W68766   2.049  24.521   3.862
26756W        W68767  14.559  19.814   1.438
26757W        W68768  15.679  14.044   0.638
26758W        W68769  21.659  17.634   0.698
26759W        W68770   4.149   7.254   2.802
26760W        W68771  22.849  11.044   7.562
26761W        W68772   8.419   1.644   3.422
26762W        W68773   4.909   8.004   9.822
26763W        W68774   2.919  10.594   9.052
26764W        W68775  18.979  21.801  10.782
26765W        W68776  17.159  17.614  11.782
26766W        W68777   5.319  16.494   3.062
26767W        W68778  23.109   2.184  11.132
26768W        W68779  25.039  12.804   9.812
26769W        W68780  14.579   2.594   9.252
26770W        W68781  21.039   4.664  10.182
26771W        W68782  15.899   5.034   1.558
26772W        W68783  22.009  18.454   1.958
26773W        W68784  16.419  17.074   0.738
26774W        W68785  18.679  14.224  11.242
26775W        W68786   8.279  13.744  10.782
26776W        W68787  13.889   8.574   1.368
26777W        W68788  21.539  14.204  10.732
26778W        W68789  12.399  16.984   9.672
26779W        W68790  13.389   4.084   1.668
26780W        W68791  10.709  24.031   3.692
26781W        W68792   8.289  14.494  15.542
26782W        W68793  14.109   0.824   9.652
26783W        W68794   0.239   2.354   7.652
26784W        W68795  17.899  20.494   9.142
26785W        W68796   9.729   3.354   0.248
26786W        W68797   0.139   2.774   1.868
26787W        W68798  14.629   0.504   4.222
26788W        W68799  19.959   3.304   1.518
26789W        W68800   2.919   0.794   9.872
26790W        W68801  25.269   9.614  11.992
26791W        W68802   8.049  15.394   1.558
26792W        W68803   2.549   4.084   1.878
26793W        W68804   6.579   4.744   0.988
26794W        W68805   2.669  12.624   8.712
26795W        W68806  16.659   1.234   1.348
26796W        W68807   0.329  23.161   2.572
26797W        W68808  16.239  15.734   3.212
26798W        W68809  10.179   1.314   9.292
26799W        W68810  12.999  21.104  10.122
26800W        W68811  11.989  21.711   2.278
26801W        W68812  24.289  20.514   1.718
26802W        W68813  15.129   9.664   4.512
26803W        W68814  16.749  24.671  10.512
26804W        W68815  13.639  23.621   9.912
26805W        W68816   3.509  23.181   9.372
26806W        W68817  16.309  13.374   2.772
26807W        W68818  15.419   4.224  15.312
26808W        W68819  21.859  24.121  11.802
26809W        W68820  24.459   9.944   1.058
26810W        W68821  14.829  21.254   1.808
26811W        W68822  15.619  22.281   8.872
26812W        W68823  17.419   7.064   9.722
26813W        W68824   6.179  23.961   9.032
26814W        W68825  10.259  11.444  10.282
26815W        W68826   7.359   0.504   9.872
26816W        W68827  24.939  20.914  10.972
26817W        W68828   6.479  17.264   8.172
26818W        W68829   3.799  16.754   3.342
26819W        W68830   0.789  13.724   8.042
26820W        W68831  25.539   7.774   8.182
26821W        W68832   6.619  17.704   2.188
26822W        W68833  23.919  17.374   9.772
26823W        W68834   2.319  13.374   2.612
26824W        W68835  16.009  17.194   1.358
26825W        W68836  20.029  23.691   0.558
26826W        W68837  10.999  24.591   3.142
26827W        W68838   6.749  19.614  10.242
26828W        W68839   5.839   2.394   8.132
26829W        W68840  11.969   1.564   2.602
26830W        W68841   5.829  22.431   0.928
26831W        W68842  23.099  22.691   2.992
26832W        W68843   6.539   8.944   8.832
26833W        W68844   0.049  21.324   8.262
26834W        W68845  23.189   1.144   8.882
26835W        W68846   4.589  16.134   3.372
26836W        W68847  19.569  21.941  10.952
26837W        W68848  24.129   7.484  15.812
26838W        W68849   8.559  16.904   9.102
26839W        W68850  20.529   6.474  10.932
26840W        W68851   9.189  20.444  15.712
26841W        W68852  10.399  18.284   1.628
26842W        W68853   0.999  15.464  11.102
26843W        W68854   9.319   4.174   3.772
26844W        W68855   8.059  15.564   4.682
26845W        W68856  19.199  13.824   3.502
26846W        W68857  13.029  22.141   3.882
26847W        W68858  24.939   1.094   2.592
26848W        W68859  23.609  24.081   2.702
26849W        W68860   5.639   0.544   3.022
26850W        W68861   8.269  22.711   1.818
26851W        W68862  20.319  17.134   4.082
26852W        W68863  18.129  11.194   3.752
26853W        W68864  21.289  13.264   0.998
26854W        W68865  25.119  16.634   3.122
26855W        W68866   8.889  18.904   0.128
26856W        W68867  23.679   7.654   2.118
26857W        W68868   1.629   3.424   0.228
26858W        W68869  23.529   5.344  11.872
26859W        W68870  18.209   7.074   1.648
26860W        W68871   1.369   3.704   8.572
26861W        W68872  13.009  18.614  15.582
26862W        W68873  11.119   7.104   3.682
26863W        W68874   0.389  22.241   2.448
26864W        W68875   8.169  14.924   9.542
26865W        W68876   6.589  17.994   1.818
26866W        W68877  18.769  10.194   1.298
26867W        W68878  15.119  18.954   1.088
26868W        W68879   6.219  13.844  10.202
26869W        W68880   0.979   3.244   3.652
26870W        W68881  25.019  12.904   8.682
26871W        W68882  16.779  12.224   9.112
26872W        W68883   1.759  22.101  11.562
26873W        W68884   2.619  15.224   3.122
26874W        W68885  21.059  17.394   0.718
26875W        W68886  24.269   0.424  11.572
26876W        W68887   5.319  23.001   9.692
26877W        W68888   9.189  23.061   2.982
26878W        W68889   2.509   5.734   7.472
26879W        W68890  18.729  22.821   9.312
26880W        W68891   3.219  11.284   2.428
26881W        W68892   1.689   1.574  10.792
26882W        W68893  19.759  16.724  11.562
26883W        W68894  11.149   4.484   9.402
26884W        W68895  15.549   3.604   0.228
26885W        W68896   5.229  17.354   1.908
26886W        W68897  17.189  21.681   9.862
26887W        W68898  22.409   3.074   1.448
26888W        W68899   8.749  11.204   1.808
26889W        W68900   8.009  19.804  10.942
26890W        W68901   9.969  22.201   8.612
26891W        W68902   7.139   5.444   1.068
26892W        W68903  17.549   6.344   1.648
26893W        W68904  10.869   4.874   7.792
26894W        W68905   2.919  18.324   9.512
26895W        W68906   5.829  24.131   8.632
26896W        W68907  21.199   6.834   0.878
26897W        W68908   0.449  15.444  15.812
26898W        W68909  24.089   3.914   8.282
26899W        W68910  22.189  19.344  11.432
26900W        W68911   4.559   2.834  10.732
26901W        W68912   0.659  12.424   3.072
26902W        W68913  23.529  13.384   1.468
26903W        W68914  25.169   2.334   3.242
26904W        W68915  22.849   8.314   9.722
26905W        W68916  23.459   8.034   0.418
26906W        W68917  25.069  17.124   3.472
26907W        W68918   6.189  17.314   9.542
26908W        W68919  17.839   4.744   8.412
26909W        W68920   5.039   1.684   2.138
26910W        W68921   1.699   5.394   9.042
26911W        W68922  23.939  12.454   1.748
26912W        W68923   9.539   2.734   9.862
26913W        W68924  20.549  22.261   3.362
26914W        W68925  18.909  23.931   1.928
26915W        W68926   5.749  15.734   0.938
26916W        W68927  23.059   9.154   6.892
26917W        W68928   0.779  19.274  10.142
26918W        W68929  19.079   7.094   8.782
26919W        W68930  14.719  24.961   8.572
26920W        W68931   6.119   3.844   9.982
26921W        W68932  23.339  11.284   8.342
26922W        W68933  23.299   5.144   3.082
26923W        W68934  15.509  11.274   2.308
26924W        W68935  16.119  23.531   9.572
26925W        W68936  11.109   2.134   1.208
26926W        W68937  16.219  19.254   9.102
26927W        W68938  15.479  18.714   3.892
26928W        W68939   6.789   9.494   7.532
26929W        W68940   7.639  15.814   2.308
26930W        W68941   1.419  11.314  11.212
26931W        W68942  16.749   0.204  11.572
26932W        W68943  22.379  25.331   1.898
26933W        W68944  19.759   6.564   8.552
26934W        W68945  12.689  13.394   1.768
26935W        W68946  14.919  25.461   3.002
26936W        W68947   4.559   0.304   8.392
26937W        W68948   5.909  25.411  10.102
26938W        W68949   0.859  18.614   4.162
26939W        W68950  22.149  19.964   0.218
26940W        W68951  19.109  25.401   2.478
26941W        W68952  23.839  20.514   2.612
26942W        W68953  12.939  23.491   8.402
26943W        W68954  22.059  23.481   1.758
26944W        W68955  17.249   5.674   9.322
26945W        W68956  16.949  17.324   9.852
26946W        W68957   0.199   4.194   8.242
26947W        W68958   2.699  15.724  15.612
26948W        W68959  23.809   9.794   7.842
26949W        W68960   4.629   6.134   2.288
26950W        W68961   0.989  21.214   1.638
26951W        W68962  18.259   3.544  15.662
26952W        W68963  13.989  21.741  10.712
26953W        W68964  21.389  18.204   0.778
26954W        W68965   9.809   4.364   2.188
26955W        W68966  18.279   5.384  10.612
26956W        W68967  25.129  18.294   7.622
26957W        W68968  17.589   5.164   3.922
26958W        W68969   4.269  19.034  15.402
26959W        W68970   9.269  12.714   0.098
26960W        W68971  20.439  20.894   9.882
26961W        W68972   0.859  23.581  11.332
26962W        W68973   8.809   0.494   8.722
26963W        W68974   9.749  19.104   0.238
26964W        W68975  20.499  15.914   7.302
26965W        W68976   0.979  13.554   9.332
26966W        W68977  15.079  17.884   3.082
26967W        W68978   9.059  14.554   3.632
26968W        W68979   9.929  21.054   1.238
26969W        W68980   0.839  12.444   8.972
26970W        W68981   2.159   2.784   9.622
26971W        W68982  23.159   4.724   0.988
26972W        W68983   1.209  22.521   7.952
26973W        W68984   8.899   3.524  10.182
26974W        W68985   1.639  13.804   2.892
26975W        W68986  24.359   1.034  12.342
26976W        W68987  25.579  12.884   1.978
26977W        W68988   1.299  17.984   8.442
26978W        W68989   8.909   7.024   0.018
26979W        W68990  14.799  25.391   7.732
26980W        W68991  16.929   6.304  15.812
26981W        W68992  10.179   0.554   5.022
26982W        W68993  18.729   7.654  15.512
26983W        W68994  17.229  21.541   7.892
26984W        W68995   1.109   8.404   8.152
26985W        W68996   8.279  21.661  10.392
26986W        W68997   5.809  14.234   2.942
26987W        W68998  15.819  18.454  15.652
26988W        W68999   4.959   3.684  14.602
26989W        W69000  22.829  11.324  15.242
26990W        W69001  10.709  19.794   1.868
26991W        W69002  21.079  24.581   0.388
26992W        W69003   8.409   0.234   2.448
26993W        W69004  17.269  12.764   1.888
26994W        W69005  23.349  23.551   3.582
26995W        W69006  21.009   6.664   7.902
26996W        W69007   7.849  20.754  15.802
26997W        W69008   7.109   6.134  10.862
26998W        W69009   9.579  14.874   4.952
26999W        W69010   0.469  12.324   1.478
27000W        W69011   5.899  11.784   1.148
27001W        W69012   2.799  21.851   9.872
27002W        W69013   8.919  19.254  10.312
27003W        W69014  12.319   4.924   9.922
27004W        W69015  21.659   6.424   9.562
27005W        W69016  24.369   6.944   0.098
27006W        W69017   0.159  16.264  11.722
27007W        W69018   3.139  18.184   8.472
27008W        W69019  15.369  21.991   9.182
27009W        W69020  19.739   7.704   1.628
27010W        W69021  20.669  21.891   8.502
27011W        W69022  13.919   6.384  10.812
27012W        W69023  18.309  18.854   0.288
27013W        W69024   7.039  23.381  15.662
27014W        W69025  19.109   6.114  10.222
27015W        W69026  10.859  10.074   9.162
27016W        W69027   7.269  20.034   1.228
27017W        W69028  12.949  24.441  15.802
27018W        W69029   2.529  25.411   0.958
27019W        W69030   7.159   7.354   3.802
27020W        W69031  18.999  16.794   1.608
27021W        W69032   0.289  22.891   3.692
27022W        W69033  24.479  15.794   8.122
27023W        W69034  21.549  16.404  11.872
27024W        W69035  18.549  20.954   8.442
27025W        W69036  12.859  14.384   2.522
27026W        W69037  13.439  21.114   1.908
27027W        W69038   7.619  10.564  15.682
27028W        W69039  16.659   8.244   2.198
27029W        W69040   8.449  19.554   0.788
27030W        W69041  25.589   3.354   8.942
27031W        W69042   9.279   8.734   1.498
27032W        W69043  22.689   0.874  11.422
27033W        W69044  23.509  19.544   2.822
27034W        W69045  24.569   3.314   2.458
27035W        W69046  16.189  19.994   7.382
27036W        W69047  17.199   3.574  10.992
27037W        W69048  18.829  19.514   9.302
27038W        W69049   4.569   0.134  10.792
27039W        W69050   0.879   5.464   8.462
27040W        W69051  16.329  24.931   0.328
27041W        W69052  12.499  10.654   5.452
27042W        W69053  10.919  24.851  10.392
27043W        W69054   3.529  21.244   2.138
27044W        W69055   4.479  17.864   0.048
27045W        W69056  19.419  15.294   0.608
27046W        W69057  17.609  25.321   2.178
27047W        W69058  12.309  13.974   2.622
27048W        W69059  19.879  12.744   2.218
27049W        W69060  22.319  22.141   7.932
27050W        W69061  15.679   9.034   0.998
27051W        W69062   9.239   6.644   3.972
27052W        W69063  19.579   4.734   8.952
27053W        W69064  22.619  21.881   3.082
27054W        W69065   2.819   1.014   2.912
27055W        W69066  18.369   1.084   7.852
27056W        W69067  20.139  13.774   9.292
27057W        W69068   0.249  19.084   8.222
27058W        W69069  15.059   1.104   0.748
27059W        W69070   4.059   4.094   2.248
27060W        W69071  19.969  13.694   0.638
27061W        W69072  24.309   6.404   2.198
27062W        W69073  17.419  15.494   9.352
27063W        W69074  16.529  14.474  10.562
27064W        W69075  20.069   1.084  12.322
27065W        W69076   8.709   6.724   3.502
27066W        W69077  21.449   8.524   2.068
27067W        W69078   3.509  19.934   2.258
27068W        W69079   4.739   8.554   9.812
27069W        W69080   7.029  11.634   0.588
27070W        W69081  10.329  14.984   2.572
27071W        W69082  21.569  23.001   1.478
27072W        W69083   0.279  19.354   1.318
27073W        W69084   6.789  22.371   2.008
27074W        W69085   8.579   3.434   8.892
27075W        W69086  18.099  25.141   2.108
27076W        W69087  18.499  24.291  12.722
27077W        W69088  10.889  16.724   3.532
27078W        W69089  14.089  23.981   4.772
27079W        W69090  22.739  22.981   3.212
27080W        W69091  13.549  10.084   3.822
27081W        W69092   5.819  22.871  15.672
27082W        W69093  16.869   8.304   3.732
27083W        W69094  19.829  24.021   7.382
27084W        W69095   3.309   5.134   2.098
27085W        W69096  23.299  15.704  11.892
27086W        W69097  18.179  23.501   2.562
27087W        W69098  24.459  21.204  10.802
27088W        W69099  19.859  24.181   2.982
27089W        W69100   7.859  22.861   8.452
27090W        W69101  10.039  16.294   7.852
27091W        W69102  17.419  18.474  11.492
27092W        W69103  21.039  14.904   3.262
27093W        W69104  11.019  11.124  13.992
27094W        W69105  22.399  21.641   7.802
27095W        W69106  17.439  23.831   0.958
27096W        W69107  11.319  22.441   3.752
27097W        W69108  12.639  14.914  15.852
27098W        W69109  22.009   2.114   7.792
27099W        W69110  17.139  20.634   7.152
27100W        W69111   9.889  10.714   1.018
27101W        W69112  18.819   4.484   8.692
27102W        W69113  12.189  14.054   0.168
27103W        W69114   7.969   9.744  10.432
27104W        W69115   0.529   2.904  11.482
27105W        W69116   6.699   9.834   1.828
27106W        W69117   9.989  11.844  11.022
27107W        W69118   8.059  20.524  15.052
27108W        W69119   5.059   9.584   2.278
27109W        W69120  23.959   5.214   1.828
27110W        W69121   2.879  10.144   7.802
27111W        W69122  15.689  14.384   0.988
27112W        W69123   2.459  24.911   0.318
27113W        W69124   6.299   6.214   8.402
27114W        W69125  18.429  12.674  10.112
27115W        W69126  24.869  14.854   0.378
27116W        W69127  22.179   3.034  11.302
27117W        W69128  12.749  18.964   3.362
27118W        W69129  18.299  19.724   8.392
27119W        W69130  19.799  15.164   2.338
27120W        W69131  17.899  21.144   2.652
27121W        W69132  20.309  21.364   9.072
27122W        W69133   2.379  20.084   0.628
27123W        W69134   3.589  10.784   2.278
27124W        W69135  13.469  13.274  15.002
27125W        W69136   6.629  15.894   2.532
27126W        W69137  23.959  19.974  10.852
27127W        W69138  15.589   3.474   9.872
27128W        W69139   4.729   7.904   7.572
27129W        W69140  16.149  14.274   0.738
27130W        W69141   6.899  24.671   2.488
27131W        W69142   6.289  15.544   2.338
27132W        W69143  17.029  14.884   8.562
27133W        W69144  17.719  12.454  11.182
27134W        W69145   0.819   4.814  10.422
27135W        W69146  12.649  22.731   1.278
27136W        W69147  13.479  24.701  10.242
27137W        W69148  23.459   2.024   3.842
27138W        W69149  19.089   4.184   2.328
27139W        W69150  10.949   5.024   9.692
27140W        W69151   6.499  11.264   7.802
27141W        W69152  15.159  12.944  10.902
27142W        W69153  15.899   5.424   8.742
27143W        W69154   1.029   6.624  14.912
27144W        W69155  23.899  12.224  11.042
27145W        W69156  17.599  23.761  10.862
27146W        W69157  19.089  10.374   9.172
27147W        W69158   2.429  19.084   0.508
27148W        W69159   3.249   0.474   8.622
27149W        W69160   8.959   4.144   1.988
27150W        W69161  25.419   2.584   7.892
27151W        W69162  15.299  23.101   8.592
27152W        W69163   6.359   1.914   1.958
27153W        W69164  15.989   7.924   9.362
27154W        W69165  24.549   2.154  12.462
27155W        W69166   7.489  15.504  10.862
27156W        W69167  18.569  24.811   8.542
27157W        W69168   5.009   1.984   8.272
27158W        W69169  11.089  15.634   0.578
27159W        W69170   7.849  14.804  15.562
27160W        W69171  13.959  14.614  15.522
27161W        W69172  15.549   2.494   9.692
27162W        W69173   7.949  10.624   2.862
27163W        W69174  21.269  17.594  11.552
27164W        W69175  13.189  17.454   8.432
27165W        W69176   3.289   8.744  11.272
27166W        W69177   4.589   1.874  15.792
27167W        W69178  11.609  22.491  10.142
27168W        W69179  16.899   5.394   1.898
27169W        W69180  20.659  12.324  11.302
27170W        W69181  24.389   2.164   0.048
27171W        W69182  22.489  18.214  11.692
27172W        W69183  12.399  12.064   5.092
27173W        W69184  15.339  21.264  10.972
27174W        W69185  25.309  10.844   1.428
27175W        W69186  15.139  20.104  10.482
27176W        W69187  24.539   5.774   9.232
27177W        W69188   3.179   4.854  10.312
27178W        W69189   0.979  12.414   9.762
27179W        W69190  17.359   0.594   1.998
27180W        W69191  11.949   6.514   8.112
27181W        W69192  10.129   8.304   0.618
27182W        W69193  11.049   0.654   1.788
27183W        W69194  11.129   7.604   3.222
27184W        W69195  16.879  18.184   1.968
27185W        W69196  13.639  11.684  10.072
27186W        W69197   7.429   6.034   9.672
27187W        W69198  11.819   1.284   1.508
27188W        W69199   1.949  24.371   8.802
27189W        W69200   0.069  24.031   9.932
27190W        W69201  10.539  15.404   9.912
27191W        W69202   0.139   8.634   2.258
27192W        W69203   0.729  11.554   9.562
27193W        W69204   1.179  17.404   0.638
27194W        W69205  12.039  25.351  15.152
27195W        W69206  11.479  15.164  15.012
27196W        W69207  14.839   4.554   0.838
27197W        W69208  18.299  15.864   4.372
27198W        W69209  18.919  18.154   6.802
27199W        W69210  20.949  24.621   0.938
27200W        W69211  17.899   2.514   9.312
27201W        W69212   2.189  11.814   2.108
27202W        W69213  23.079  21.511   0.998
27203W        W69214   8.419   1.494   9.992
27204W        W69215  17.069  10.944  10.922
27205W        W69216  10.439   4.954   7.552
27206W        W69217   8.759  14.964   3.242
27207W        W69218   5.599  11.514   7.972
27208W        W69219  19.589   3.514   7.952
27209W        W69220   4.209   6.724  11.072
27210W        W69221  11.869   0.524   9.732
27211W        W69222  11.839   4.414   2.622
27212W        W69223   0.249   0.714  10.182
27213W        W69224  19.469   9.054   3.532
27214W        W69225   7.349   5.284  10.312
27215W        W69226  17.409   8.604   0.918
27216W        W69227  19.379  16.504   8.902
27217W        W69228  21.669  14.884   7.922
27218W        W69229   5.259  16.894  10.302
27219W        W69230   6.639   7.444   3.812
27220W        W69231  16.819  20.024   2.308
27221W        W69232  20.569   0.034   0.528
27222W        W69233   3.989  16.604   2.582
27223W        W69234  14.239  14.544   4.732
27224W        W69235   4.609  19.634   0.548
27225W        W69236  14.269   0.554   7.892
27226W        W69237   8.409  24.001  15.512
27227W        W69238  23.599  13.784   8.842
27228W        W69239  24.709   4.064   0.758
27229W        W69240   0.509  23.991  10.802
27230W        W69241   7.779  14.164   8.722
27231W        W69242   0.509  16.694   0.278
27232W        W69243   8.959  10.224   0.918
27233W        W69244  19.629   1.234  11.702
27234W        W69245  11.009  13.264   9.242
27235W        W69246   8.659   0.824   1.958
27236W        W69247  21.679  18.264   8.742
27237W        W69248  12.379  23.271   9.852
27238W        W69249  13.389   7.424   3.572
27239W        W69250   3.909   6.904  10.192
27240W        W69251  21.039  16.474   8.382
27241W        W69252   8.059  23.371   3.542
27242W        W69253   5.819  15.894   8.162
27243W        W69254   2.559  22.201   8.912
27244W        W69255   2.139  21.421  10.942
27245W        W69256   5.819   4.424   1.108
27246W        W69257  18.599  10.254  11.432
27247W        W69258  10.659   5.864  15.832
27248W        W69259  17.209   7.944   0.578
27249W        W69260  22.669  18.424   9.022
27250W        W69261  19.279   6.734   0.978
27251W        W69262  24.099   6.364   8.722
27252W        W69263   5.879  18.144  10.472
27253W        W69264  14.349   9.934   2.058
27254W        W69265  16.519   2.144   2.712
27255W        W69266  11.219  18.074  15.682
27256W        W69267  21.579  12.504  15.832
27257W        W69268  13.629  15.874   0.508
27258W        W69269  13.359  23.201   3.592
27259W        W69270   5.219  23.791  10.382
27260W        W69271  23.149  15.744   8.292
27261W        W69272  12.419   8.644  10.272
27262W        W69273  15.839  20.634   0.648
27263W        W69274  23.249  10.754   7.612
27264W        W69275   7.239   6.504   8.792
27265W        W69276  14.909  22.881  11.702
27266W        W69277  13.329  19.074   1.578
27267W        W69278   7.699  25.331   8.862
27268W        W69279  14.809  12.044   0.168
27269W        W69280  17.749   1.474   1.308
27270W        W69281  13.869  24.621   3.022
27271W        W69282   4.539  13.414   0.588
27272W        W69283  25.399  13.604  10.712
27273W        W69284  13.939  16.564  11.642
27274W        W69285   7.549  14.424   7.642
27275W        W69286  16.909  23.071  15.642
27276W        W69287  17.689   8.774   1.608
27277W        W69288  20.649  21.194  10.992
27278W        W69289   4.739   3.984   8.982
27279W        W69290  21.289  24.091   4.382
27280W        W69291  21.459  13.074  11.912
27281W        W69292   2.909   0.624   7.822
27282W        W69293  10.509  18.734  15.642
27283W        W69294   2.299  12.784   8.322
27284W        W69295  22.809   1.144   7.812
27285W        W69296  20.819   7.084  12.052
27286W        W69297   8.339   5.774   8.402
27287W        W69298   1.659  19.384   8.762
27288W        W69299   6.429  17.904  11.862
27289W        W69300  22.209   8.954   9.042
27290W        W69301   3.629   1.504   9.712
27291W        W69302  23.349  24.711   8.392
27292W        W69303   2.389  20.734   7.392
27293W        W69304  19.119   8.944  15.472
27294W        W69305   9.989  19.204   9.422
27295W        W69306  10.129  11.344   0.668
27296W        W69307  24.919  13.244   1.188
27297W        W69308  10.909  25.101   0.008
27298W        W69309  12.919  14.974   3.492
27299W        W69310   5.739   1.214   9.032
27300W        W69311  25.269  24.161  10.352
27301W        W69312   2.639  11.904   0.408
27302W        W69313   3.179  21.244   9.422
27303W        W69314  11.779  14.424   4.142
27304W        W69315  21.139  19.664   3.292
27305W        W69316   9.369  19.114  15.832
27306W        W69317  20.879  16.554   1.098
27307W        W69318   0.999   8.934   7.242
27308W        W69319  15.729   7.994   3.512
27309W        W69320   6.109  11.714   0.038
27310W        W69321  19.939  10.004   4.332
27311W        W69322  13.529   8.344   0.968
27312W        W69323   8.449  10.764   9.792
27313W        W69324  13.249   2.254   2.692
27314W        W69325   8.299   6.274   2.702
27315W        W69326   4.769   1.924  11.452
27316W        W69327   1.089   1.554   2.922
27317W        W69328  20.899   5.004   0.228
27318W        W69329  13.769   7.864   2.582
27319W        W69330  10.929  22.001   9.912
27320W        W69331   3.189   8.354   8.212
27321W        W69332  24.399  16.444  11.722
27322W        W69333  24.209  13.994  10.182
27323W        W69334   3.469  23.541   0.398
27324W        W69335   9.069  12.114   1.908
27325W        W69336   5.889  12.574   0.718
27326W        W69337   7.349  25.131   2.208
27327W        W69338  25.189  16.194   0.468
27328W        W69339   1.049   7.744  10.542
27329W        W69340   0.459   9.034  14.912
27330W        W69341  14.209  15.704   1.198
27331W        W69342   1.829  12.844   8.612
27332W        W69343  20.409   3.414   2.942
27333W        W69344  24.549   3.284   1.558
27334W        W69345  19.739  21.721   9.662
27335W        W69346  17.589  20.384   2.338
27336W        W69347  24.719  19.094   3.012
27337W        W69348  11.499  20.694   8.862
27338W        W69349   8.759  17.664   9.822
27339W        W69350   2.879  12.784   7.582
27340W        W69351  20.369  12.764  15.462
27341W        W69352  17.279   1.214   8.092
27342W        W69353  23.749   7.474   1.638
27343W        W69354  18.609   0.604  12.362
27344W        W69355  10.889   7.094   3.212
27345W        W69356   3.699   9.784   0.688
27346W        W69357   1.259   6.954  10.902
27347W        W69358  13.449  14.274   4.812
27348W        W69359   2.129   1.034  10.762
27349W        W69360  25.249  19.684   3.942
27350W        W69361  17.869   5.964  15.532
27351W        W69362   2.919   3.024   0.958
27352W        W69363  11.309  13.744   1.078
27353W        W69364  10.549  20.454  15.232
27354W        W69365   5.619  18.734   8.202
27355W        W69366  14.939  19.474   7.612
27356W        W69367   3.259  22.531  15.382
27357W        W69368  19.819  10.714   8.062
27358W        W69369   0.329  11.474   9.162
27359W        W69370  19.509   2.404   8.342
27360W        W69371   3.669  11.114   8.382
27361W        W69372  11.379  17.934   1.568
27362W        W69373  19.569  10.484   2.298
27363W        W69374  11.359   0.104   7.992
27364W        W69375  18.559  24.721  11.192
27365W        W69376  13.939   6.804   3.092
27366W        W69377  12.969   9.794  15.442
27367W        W69378  22.539   6.564  10.432
27368W        W69379  11.739   0.714   3.232
27369W        W69380   9.189   6.134   8.782
27370W        W69381  20.249  15.224   0.618
27371W        W69382   8.679   2.854   1.888
27372W        W69383   3.289  19.704   9.402
27373W        W69384   6.989  21.551   8.302
27374W        W69385  19.519  10.934  15.452
27375W        W69386  24.629   4.804   9.002
27376W        W69387   2.849  10.064   9.092
27377W        W69388   2.209   8.004   1.768
27378W        W69389   0.719  13.684   3.042
27379W        W69390  13.279   4.394   8.422
27380W        W69391  16.859   8.714  15.062
27381W        W69392  21.499  11.344  10.812
27382W        W69393  13.389  18.934  15.602
27383W        W69394  24.179  15.754   3.582
27384W        W69395   2.969  23.131   2.088
27385W        W69396  25.249  12.034   0.868
27386W        W69397  11.319   5.004   0.458
27387W        W69398   9.059  23.811  15.532
27388W        W69399  20.259   8.914   2.408
27389W        W69400   0.929   7.894  14.792
27390W        W69401   5.519  19.814  11.782
27391W        W69402  17.319   5.994  15.352
27392W        W69403  13.609  19.404   2.842
27393W        W69404  19.639   1.714   8.742
27394W        W69405  24.699   0.174   3.362
27395W        W69406   1.949   6.854   1.858
27396W        W69407  13.689   1.194   9.712
27397W        W69408   1.449   4.154   8.772
27398W        W69409   2.209   3.404   1.398
27399W        W69410  10.759  19.904  10.042
27400W        W69411  23.599   4.234   0.418
27401W        W69412  13.459  18.494   0.998
27402W        W69413  13.569   9.164   9.242
27403W        W69414  12.099   1.674  14.912
27404W        W69415  17.449  18.444   9.762
27405W        W69416   9.559   6.844   7.932
27406W        W69417  14.949  10.174   0.238
27407W        W69418   2.049   6.544  10.452
27408W        W69419  16.999  19.354  10.712
27409W        W69420  10.059   3.054   1.938
27410W        W69421   3.849  23.831   0.208
27411W        W69422  13.159   6.154   3.042
27412W        W69423  11.199  20.974  10.722
27413W        W69424  17.329  19.154   3.222
27414W        W69425   1.769  16.434   1.508
27415W        W69426  24.949  13.144   7.412
27416W        W69427  14.719   7.334   1.318
27417W        W69428   7.149   9.194   3.702
27418W        W69429  17.149  22.321   0.098
27419W        W69430  18.379  24.901   1.278
27420W        W69431  17.209   9.504   1.158
27421W        W69432  15.709  21.194   3.502
27422W        W69433  17.139   0.804   4.312
27423W        W69434  24.429   7.024   9.212
27424W        W69435  20.249  21.771   8.792
27425W        W69436  25.189  22.471  11.122
27426W        W69437  18.169  16.884   9.792
27427W        W69438   6.649  11.074  10.172
27428W        W69439  13.069  20.064   4.942
27429W        W69440   2.659  20.064  11.272
27430W        W69441   4.569  15.164   3.132
27431W        W69442   5.429  25.241   3.472
27432W        W69443  10.189  24.061   9.892
27433W        W69444  12.179   5.114   3.172
27434W        W69445  24.009  21.104   1.978
27435W        W69446   6.169  18.024   3.662
27436W        W69447  22.539  11.234   1.218
27437W        W69448  17.619  13.804  15.872
27438W        W69449  18.369  12.484   0.138
27439W        W69450  10.489  18.164   4.192
27440W        W69451  24.139  21.541   2.378
27441W        W69452   5.699   7.114  10.522
27442W        W69453  12.319   7.364   1.128
27443W        W69454  17.129   3.304  11.702
27444W        W69455   4.569  13.714  10.822
27445W        W69456  23.569  21.164   7.752
27446W        W69457  21.399  16.424  10.652
27447W        W69458   2.049  25.321   7.302
27448W        W69459  12.409  23.271   9.302
27449W        W69460   3.779   8.884  11.812
27450W        W69461  22.529   0.714  11.012
27451W        W69462  21.899  18.244   3.882
27452W        W69463   2.899   8.404   9.852
27453W        W69464  25.529  20.354   2.822
27454W        W69465  15.409   7.614   8.672
27455W        W69466  11.329   3.224   0.048
27456W        W69467  14.649  17.864   2.822
27457W        W69468   9.299   9.224   8.192
27458W        W69469  19.719  11.764   1.658
27459W        W69470  21.349  10.614   0.968
27460W        W69471   9.709  11.324   8.092
27461W        W69472  15.539   6.374   0.128
27462W        W69473  21.299  12.774   9.412
27463W        W69474  14.909  22.791  10.692
27464W        W69475  22.429   8.984  11.782
27465W        W69476  14.409  13.854   5.782
27466W        W69477   9.309   1.204   9.902
27467W        W69478   3.639  20.834  10.262
27468W        W69479  20.989  13.744   0.308
27469W        W69480   5.269   2.534   2.328
27470W        W69481  12.489  20.794   2.852
27471W        W69482   9.589  19.794  15.192
27472W        W69483   3.979  14.114   0.788
27473W        W69484  13.959   7.244  14.912
27474W        W69485  13.919  22.851   9.442
27475W        W69486  23.469  17.284   0.758
27476W        W69487   2.849   6.364   2.188
27477W        W69488  15.029  11.454   3.102
27478W        W69489  11.949  10.834  10.612
27479W        W69490  15.689  16.224   1.848
27480W        W69491   8.979  10.714   2.308
27481W        W69492   4.279   0.484  10.342
27482W        W69493  11.239  16.684   9.722
27483W        W69494   5.979  20.104   9.872
27484W        W69495  10.619   1.914   2.358
27485W        W69496  20.829  13.804  10.272
27486W        W69497   4.659  20.654   8.802
27487W        W69498   9.939  22.581   2.448
27488W        W69499   0.219   3.644   1.708
27489W        W69500  10.649  11.264   9.282
27490W        W69501   3.309  20.544   7.182
27491W        W69502   1.879  11.904   7.922
27492W        W69503  24.689  16.304   0.478
27493W        W69504   6.379  19.074   2.852
27494W        W69505  21.279  19.724   8.212
27495W        W69506   8.389  10.054   1.358
27496W        W69507  11.919  20.184  15.452
27497W        W69508   9.429  16.744  10.092
27498W        W69509   6.959  14.964   4.712
27499W        W69510   9.829  18.634  15.862
27500W        W69511   4.429   3.314   2.702
27501W        W69512  19.009  23.371  11.082
27502W        W69513   8.419  15.214   3.482
27503W        W69514   3.839  10.684  15.482
27504W        W69515  11.559   5.804   9.702
27505W        W69516   6.979   0.444   0.828
27506W        W69517   6.909  12.304   9.532
27507W        W69518  14.209   4.564   0.188
27508W        W69519   2.729  25.451   1.918
27509W        W69520   8.409  12.774   8.902
27510W        W69521  17.269  12.124   9.942
27511W        W69522  19.149  17.574   0.068
27512W        W69523   4.589  12.274   8.792
27513W        W69524   4.119   4.094   3.252
27514W        W69525  24.599   4.144   1.278
27515W        W69526   0.031   5.354   3.182
27516W        W69527  14.819   7.604  15.872
27517W        W69528   3.889  17.194   8.012
27518W        W69529  25.399   2.774   9.732
27519W        W69530   8.599  21.621   8.032
27520W        W69531   4.109  16.044   1.308
27521W        W69532  17.209  14.954   0.128
27522W        W69533  21.849  19.004   0.178
27523W        W69534  12.179  14.764  15.332
27524W        W69535   9.919   3.584   2.158
27525W        W69536  19.059  16.844   2.078
27526W        W69537  16.679   7.564  15.502
27527W        W69538  12.529  21.561  12.232
27528W        W69539  15.149   7.414   3.202
27529W        W69540  21.989   8.254  11.052
27530W        W69541  13.529  14.884   2.572
27531W        W69542  19.579  25.161  12.782
27532W        W69543  10.789   9.284  15.602
27533W        W69544   6.499  15.814   9.402
27534W        W69545   6.569  22.901   7.742
27535W        W69546  24.179  23.471   7.982
27536W        W69547  20.749   1.054  11.082
27537W        W69548  16.819   3.074   3.322
27538W        W69549  25.169  19.584   8.542
27539W        W69550  12.129   8.884  15.252
27540W        W69551  24.489   7.254   8.072
27541W        W69552  25.429   3.544   9.542
27542W        W69553   7.119  10.794   2.872
27543W        W69554  21.709   2.344   8.252
27544W        W69555  14.199  19.794   2.168
27545W        W69556  17.599   9.444  10.232
27546W        W69557   5.739  14.734   8.082
27547W        W69558  21.549  11.744   0.768
27548W        W69559   2.459   9.084   8.772
27549W        W69560  15.409  17.704   1.748
27550W        W69561   3.659   6.954   1.118
27551W        W69562   0.849   0.364   8.812
27552W        W69563  14.679  16.904  10.172
27553W        W69564  20.279  19.814  10.052
27554W        W69565  22.409  14.494   8.222
27555W        W69566   3.619  18.164   3.182
27556W        W69567   1.349   3.034   1.778
27557W        W69568  16.539   9.144   0.228
27558W        W69569   1.449  22.781   0.958
27559W        W69570   7.139  19.314   1.298
27560W        W69571   4.619  19.454   1.878
27561W        W69572   2.309   2.384   8.162
27562W        W69573   5.689  19.114   4.402
27563W        W69574  13.749   5.644   9.662
27564W        W69575  19.079  10.634   9.982
27565W        W69576  17.339  20.604   0.808
27566W        W69577   9.959   3.144   3.512
27567W        W69578   9.279   5.564  15.442
27568W        W69579  10.179  22.771   0.908
27569W        W69580  14.569   2.344   2.642
27570W        W69581  16.669  25.271   8.372
27571W        W69582   1.679  11.854   8.752
27572W        W69583  16.939  16.824   9.762
27573W        W69584  22.459   4.954   8.642
27574W        W69585  22.289   8.644   0.288
27575W        W69586  16.399  22.131   0.658
27576W        W69587   2.379  10.944   9.612
27577W        W69588   6.099  21.711   1.878
27578W        W69589  18.869   2.334   1.208
27579W        W69590  18.189  19.654   2.692
27580W        W69591  22.299  21.651   1.438
27581W        W69592  21.149  21.721   8.372
27582W        W69593   1.789  17.204   9.902
27583W        W69594   3.489   1.794   0.698
27584W        W69595  15.499  15.044   3.142
27585W        W69596  14.809  12.614   2.488
27586W        W69597   4.429  12.704   1.898
27587W        W69598   2.379  11.494  15.722
27588W        W69599   0.799  12.884  11.642
27589W        W69600  22.599   7.174   8.542
27590W        W69601  19.349   0.624  10.322
27591W        W69602  12.939  21.571   9.642
27592W        W69603  20.299  20.024   0.848
27593W        W69604  24.889  16.324   7.842
27594W        W69605  10.159   9.994   1.878
27595W        W69606   9.449   7.624   9.332
27596W        W69607  21.009  19.554   1.558
27597W        W69608  19.669  20.624   1.548
27598W        W69609  15.029   5.734   4.602
27599W        W69610   6.409   0.534   3.122
27600W        W69611   9.739   7.074   0.278
27601W        W69612   5.699  20.824   9.002
27602W        W69613   5.789  13.314   9.292
27603W        W69614  13.809  12.804   4.782
27604W        W69615   5.959  24.691  11.562
27605W        W69616  12.019  21.901   1.258
27606W        W69617  21.369  23.001   2.338
27607W        W69618   6.309   4.364  10.232
27608W        W69619   0.839   3.434  15.812
27609W        W69620   5.279  21.761  10.032
27610W        W69621  13.929   2.434  15.312
27611W        W69622  11.359   8.874   1.958
27612W        W69623  16.029   7.534  15.472
27613W        W69624   1.879  16.994   8.452
27614W        W69625  22.079   0.294   1.158
27615W        W69626   7.399  20.664  10.782
27616W        W69627  21.109   7.094   3.022
27617W        W69628  12.589  14.594   9.852
27618W        W69629  10.159  15.484   1.578
27619W        W69630   3.869   5.704   8.792
27620W        W69631  15.099  21.334   8.352
27621W        W69632  21.969  12.314  15.192
27622W        W69633   3.509   4.284  15.262
27623W        W69634  23.599   7.294   9.742
27624W        W69635  21.059   6.104   9.542
27625W        W69636   6.809  11.164   3.012
27626W        W69637   2.819  10.584   6.632
27627W        W69638  10.199  23.231   1.208
27628W        W69639  16.919   1.214   7.652
27629W        W69640   9.359  25.181   1.788
27630W        W69641   2.809   4.914   3.062
27631W        W69642  12.559   1.714  10.112
27632W        W69643   4.479  24.881  15.282
27633W        W69644  15.719  12.604  15.132
27634W        W69645   1.719  14.004  10.452
27635W        W69646  22.719  13.674  10.962
27636W        W69647   6.609   4.104   8.912
27637W        W69648   8.629  16.584  11.262
27638W        W69649  17.439  10.384  15.582
27639W        W69650  20.939  10.304   7.642
27640W        W69651  11.629  25.471  10.692
27641W        W69652  18.269   0.134   8.512
27642W        W69653   0.189   8.424   8.912
27643W        W69654   1.109  18.534   0.768
27644W        W69655   7.149   1.214  15.612
27645W        W69656  12.689  18.924   1.958
27646W        W69657   2.359  24.031   2.158
27647W        W69658  11.909   1.634   1.198
27648W        W69659   8.579   5.644  14.952
27649W        W69660  12.229  24.741   9.332
27650W        W69661  21.619  13.644   2.288
27651W        W69662   2.399  14.304   8.012
27652W        W69663   2.459  20.864  11.242
27653W        W69664   7.829  12.404   1.908
27654W        W69665  23.199   5.124   9.282
27655W        W69666  17.889   3.814   9.612
27656W        W69667   4.209  16.214   7.982
27657W        W69668   5.939   1.724   1.308
27658W        W69669  15.999  23.871  10.472
27659W        W69670  14.789   6.494  10.432
27660W        W69671  15.549  11.014  13.532
27661W        W69672  19.309  11.274  15.202
27662W        W69673   6.199  21.284  15.462
27663W        W69674  23.869  19.124  10.412
27664W        W69675  19.959   0.884  11.422
27665W        W69676  20.469   5.504  12.082
27666W        W69677   9.439  10.284   1.628
27667W        W69678  13.089  16.414   2.902
27668W        W69679  25.529  22.581   7.002
27669W        W69680  14.379  13.444   4.642
27670W        W69681  11.749  13.494   2.378
27671W        W69682  23.569   8.304   8.292
27672W        W69683   0.059   0.174   1.638
27673W        W69684  13.309  10.184  15.782
27674W        W69685  10.319  23.651   2.318
27675W        W69686   7.469  23.301   3.152
27676W        W69687   5.369   1.994  15.032
27677W        W69688   9.899   8.984  10.052
27678W        W69689  23.499  21.354   0.638
27679W        W69690  14.959  10.754  10.312
27680W        W69691   1.749  20.664  10.572
27681W        W69692   2.399  15.964  12.262
27682W        W69693   4.539  21.254  15.732
27683W        W69694  13.169   2.894   1.638
27684W        W69695  12.069  10.704  14.642
27685W        W69696  23.119  15.914   9.432
27686W        W69697  25.019   8.344   1.018
27687W        W69698  21.419   0.744   2.408
27688W        W69699   7.279   1.044   9.352
27689W        W69700  18.369  16.584   9.422
27690W        W69701  24.129  23.061   1.268
27691W        W69702  15.299  15.844   3.582
27692W        W69703  18.579  22.291   9.162
27693W        W69704  13.499  20.464  15.552
27694W        W69705  13.619   7.504   9.412
27695W        W69706  20.169   8.254   9.082
27696W        W69707   6.649  15.644   1.028
27697W        W69708  20.019  23.381   9.772
27698W        W69709  19.579  13.494   1.648
27699W        W69710   1.689   8.534   8.852
27700W        W69711  13.559  17.344   3.092
27701W        W69712   5.639   4.854   0.728
27702W        W69713  21.699  10.654   8.342
27703W        W69714  11.789  23.541   0.938
27704W        W69715  11.209  17.604  13.732
27705W        W69716   3.739  13.394   0.128
27706W        W69717   7.669   4.524   9.202
27707W        W69718   3.419   2.504   3.792
27708W        W69719  10.039  23.821  15.772
27709W        W69720  10.629   6.394   8.292
27710W        W69721   1.949  11.794   9.832
27711W        W69722  13.369  17.594   1.758
27712W        W69723  23.949  24.191  11.452
27713W        W69724   9.549  19.074   2.178
27714W        W69725   0.579   1.764  10.212
27715W        W69726  15.969   6.204   1.048
27716W        W69727  18.979   5.834   3.482
27717W        W69728  10.219  16.684   9.582
27718W        W69729   2.549   3.344  10.992
27719W        W69730   4.219   1.974   9.432
27720W        W69731  21.929  12.844   1.308
27721W        W69732  18.529  19.044   7.632
27722W        W69733  10.859   2.274  14.952
27723W        W69734  19.579  25.041   1.068
27724W        W69735  14.209  24.841   9.652
27725W        W69736   1.309  13.664   0.658
27726W        W69737   4.279  11.724  15.602
27727W        W69738   7.729  18.724   3.612
27728W        W69739   5.539  14.034   7.152
27729W        W69740  21.659  17.744  10.192
27730W        W69741   7.609  20.004   0.378
27731W        W69742  22.629   1.874  10.392
27732W        W69743   7.579   5.494  14.892
27733W        W69744  22.879  15.354  10.492
27734W        W69745  19.639  15.584   3.142
27735W        W69746  17.959   0.954   2.218
27736W        W69747  14.949   1.264   2.972
27737W        W69748  18.779   9.294  11.342
27738W        W69749  18.179   0.414   3.012
27739W        W69750   2.219  14.544   2.168
27740W        W69751  25.149   4.994  11.152
27741W        W69752  24.409  15.014   0.278
27742W        W69753  12.469  18.094   3.442
27743W        W69754   7.689  11.504   0.138
27744W        W69755  15.859  16.804  15.492
27745W        W69756   0.209  19.074  10.012
27746W        W69757  22.879  23.511  10.252
27747W        W69758  11.929  10.024  10.692
27748W        W69759  22.409   3.884   0.408
27749W        W69760  13.559  17.284   0.568
27750W        W69761  13.419   0.564   0.838
27751W        W69762  10.579  20.404   1.868
27752W        W69763   7.839  21.551   2.098
27753W        W69764   5.499   0.144   2.158
27754W        W69765  15.879  11.164   9.262
27755W        W69766  25.229  17.664   3.512
27756W        W69767  24.559   2.964  15.542
27757W        W69768   4.039   4.474  10.462
27758W        W69769  11.049  20.274   2.792
27759W        W69770  24.709  14.824   2.862
27760W        W69771   2.529  14.824   9.482
27761W        W69772  13.559  22.831   0.158
27762W        W69773  21.309  25.261  10.182
27763W        W69774   3.709   6.684  15.742
27764W        W69775   9.859  16.244   2.108
27765W        W69776  22.359  17.684   8.652
27766W        W69777  15.309   5.004   1.438
27767W        W69778  20.629   8.534   3.252
27768W        W69779  22.739   9.144  15.292
27769W        W69780  23.679   7.464  11.052
27770W        W69781  17.339  22.221  15.492
27771W        W69782  22.389  23.401  11.072
27772W        W69783   9.639  16.424   1.568
27773W        W69784  13.759   6.834   1.348
27774W        W69785   7.339   9.474   3.102
27775W        W69786  17.859  16.214   7.812
27776W        W69787  19.189  12.614   1.568
27777W        W69788  10.479  23.381  11.012
27778W        W69789   5.469  18.744   0.898
27779W        W69790  13.129  11.124   1.238
27780W        W69791   5.599   6.104   8.702
27781W        W69792   5.109  10.554   1.458
27782W        W69793  21.129  23.721   1.388
27783W        W69794  11.659  11.704   1.838
27784W        W69795  18.789   0.794   2.348
27785W        W69796   9.109  18.064   0.918
27786W        W69797  17.449  21.961   8.662
27787W        W69798   6.699  24.431   1.188
27788W        W69799   4.339  13.074   1.508
27789W        W69800  17.929   5.074   2.692
27790W        W69801  22.779  23.591   2.812
27791W        W69802   0.779   2.084   2.752
27792W        W69803   5.939  20.584   8.622
27793W        W69804  11.309  11.844  14.472
27794W        W69805  24.109  17.074   9.312
27795W        W69806  18.689   4.954   9.802
27796W        W69807  16.749   5.074  10.942
27797W        W69808  12.839   9.884   0.028
27798W        W69809  13.089   5.564  15.342
27799W        W69810  16.849  23.541   1.138
27800W        W69811  11.039  25.371   2.632
27801W        W69812  21.379   8.994   7.132
27802W        W69813   8.839  19.264   3.532
27803W        W69814  18.329   9.614   1.898
27804W        W69815  13.729   4.534  14.922
27805W        W69816   2.969   6.444  10.902
27806W        W69817  11.169  11.764   9.822
27807W        W69818  23.649  21.184   9.422
27808W        W69819  23.919  23.501   1.468
27809W        W69820   7.349  19.464   3.062
27810W        W69821  14.989   2.384   9.602
27811W        W69822  18.169  24.051   2.388
27812W        W69823  22.129   9.434   8.352
27813W        W69824   1.639  14.194   9.972
27814W        W69825  16.599  19.524   9.402
27815W        W69826   4.619  15.634   9.952
27816W        W69827   0.689   8.764   2.168
27817W        W69828   6.239  11.374   9.482
27818W        W69829  15.709  12.204  10.812
27819W        W69830   4.309   3.624   3.082
27820W        W69831   6.339  24.461   1.548
27821W        W69832  18.119  13.014  10.342
27822W        W69833   0.729  22.331  15.322
27823W        W69834   2.759   7.374  10.802
27824W        W69835  21.459  11.744   9.682
27825W        W69836  13.839   5.264   0.868
27826W        W69837  19.129  24.411   9.322
27827W        W69838   2.759  14.654   7.612
27828W        W69839   1.929  19.694   3.202
27829W        W69840  14.949   2.834   1.198
27830W        W69841   2.669   2.154   9.112
27831W        W69842   7.279  17.364  10.632
27832W        W69843  12.099   0.744   0.218
27833W        W69844  22.039  13.214  11.322
27834W        W69845  14.509   2.514  15.872
27835W        W69846   8.199   2.534   3.782
27836W        W69847   8.299  16.504   0.648
27837W        W69848   8.299  18.484   2.328
27838W        W69849  10.229  18.944   0.098
27839W        W69850   8.179   3.604  15.832
27840W        W69851   0.319   1.904   8.532
27841W        W69852  16.909  22.091   8.232
27842W        W69853   0.419   3.414   0.808
27843W        W69854  19.479   8.174   9.522
27844W        W69855  20.569   1.374  10.722
27845W        W69856   4.019   7.804   9.782
27846W        W69857   0.579   9.374  15.342
27847W        W69858  19.769   9.514   3.222
27848W        W69859  24.539  11.824  12.192
27849W        W69860  15.469  12.214  15.432
27850W        W69861   5.499  11.244  10.432
27851W        W69862   0.729  21.701  11.442
27852W        W69863  12.569  22.741   7.862
27853W        W69864  19.709  21.371   0.408
27854W        W69865   8.509  17.804   8.122
27855W        W69866  18.989   5.264   2.178
27856W        W69867  10.789   5.184   8.222
27857W        W69868   2.259  18.964   2.318
27858W        W69869  16.909   2.744  10.932
27859W        W69870  10.209  24.431  15.482
27860W        W69871  14.159  23.301   3.192
27861W        W69872  15.829  24.771   8.082
27862W        W69873  18.629  16.054   9.962
27863W        W69874  14.879  21.911   1.638
27864W        W69875   1.659  10.184   1.558
27865W        W69876   0.139  23.871   8.552
27866W        W69877  21.769  14.654   9.902
27867W        W69878  12.109  13.214   3.402
27868W        W69879  10.429  23.101   4.012
27869W        W69880   5.689  24.761   0.948
27870W        W69881  13.279   1.804   2.552
27871W        W69882  23.969  14.584   9.342
27872W        W69883  11.939  22.111   1.768
27873W        W69884   1.569  22.671  11.582
27874W        W69885  18.609   8.414  11.362
27875W        W69886  21.409  13.784   3.912
27876W        W69887   9.859  21.264   6.302
27877W        W69888  19.349  15.504   2.732
27878W        W69889  15.979  23.701   2.772
27879W        W69890  13.829   4.474  14.282
27880W        W69891  11.499  19.354   9.612
27881W        W69892  17.729  21.641   2.772
27882W        W69893  12.739  19.274   5.312
27883W        W69894   9.089  24.641   1.128
27884W        W69895  15.189  21.811   3.782
27885W        W69896  12.979  18.034   4.082
27886W        W69897   9.049  21.224   3.102
27887W        W69898  24.839   6.984  10.902
27888W        W69899  23.099  16.014  10.802
27889W        W69900  17.679   7.374   4.442
27890W        W69901  13.709  19.354  15.642
27891W        W69902  10.229  14.354  15.232
27892W        W69903   2.679   3.944  10.912
27893W        W69904   0.739  23.611   3.272
27894W        W69905  12.629  19.684  15.862
27895W        W69906  11.269   6.214   4.142
27896W        W69907  20.039   4.514   2.198
27897W        W69908   7.619  14.094   2.218
27898W        W69909  21.289   2.234  10.532
27899W        W69910  14.489  14.754   0.718
27900W        W69911  24.979   5.644  11.872
27901W        W69912   9.909  13.614   4.102
27902W        W69913  25.209   2.874   1.378
27903W        W69914  23.619   1.904   8.732
27904W        W69915  22.779  16.934  11.602
27905W        W69916   7.209  20.104  10.772
27906W        W69917   9.529   1.254   3.302
27907W        W69918  11.619   4.804   0.138
27908W        W69919   4.689  14.404  10.082
27909W        W69920   5.139   3.124   0.578
27910W        W69921  20.699   1.944  10.092
27911W        W69922   6.109  18.114   9.952
27912W        W69923  14.929   6.994   3.512
27913W        W69924   2.159   0.414   1.108
27914W        W69925   0.189  22.721   4.142
27915W        W69926  24.209  20.434   1.148
27916W        W69927  19.169   9.794   3.912
27917W        W69928  20.259  14.774   8.222
27918W        W69929  13.189  12.564  15.582
27919W        W69930   6.239  11.164   1.398
27920W        W69931   4.189  20.874  10.402
27921W        W69932  21.969  22.721  11.542
27922W        W69933  20.989  20.594   8.642
27923W        W69934  17.729   8.574   7.482
27924W        W69935  20.839  25.031  10.252
27925W        W69936  23.239   8.254  10.012
27926W        W69937   9.609  17.894   4.462
27927W        W69938  10.779  25.041   1.758
27928W        W69939  14.109  14.234  10.872
27929W        W69940   3.189  20.674   4.412
27930W        W69941   5.749  24.091   4.332
27931W        W69942   0.849   1.864   8.672
27932W        W69943  17.999  10.464  15.452
27933W        W69944   6.509   3.064  14.722
27934W        W69945  13.939  12.554   4.282
27935W        W69946  12.539  14.154   0.518
27936W        W69947  21.759   5.134  15.702
27937W        W69948   9.669  15.804   2.258
27938W        W69949  18.209   4.944  11.522
27939W        W69950   4.609  20.874  10.682
27940W        W69951   5.179  23.991   1.148
27941W        W69952  16.719   0.984   0.448
27942W        W69953   4.409  13.224   9.902
27943W        W69954   4.039  10.554  10.702
27944W        W69955  13.279   5.594   3.492
27945W        W69956   0.909  14.534  15.732
27946W        W69957   1.569   4.234   9.272
27947W        W69958  19.419   3.214   0.198
27948W        W69959   0.839  19.694   7.252
27949W        W69960   2.469  23.091   1.868
27950W        W69961   6.529  22.521   4.092
27951W        W69962   5.659  19.884   0.068
27952W        W69963  18.579   8.274   0.248
27953W        W69964  22.429   5.464   1.488
27954W        W69965  19.589  16.674   2.088
27955W        W69966  22.349  25.301   8.712
27956W        W69967   9.259   4.874  15.462
27957W        W69968  10.409   3.514  10.252
27958W        W69969  21.949  12.064   0.768
27959W        W69970   3.469   2.094   1.608
27960W        W69971   6.769   9.334   1.858
27961W        W69972  20.569  22.761   2.732
27962W        W69973  22.539   0.294   0.408
27963W        W69974  17.879   3.114   9.262
27964W        W69975  11.419   7.544   1.738
27965W        W69976  19.259  21.931   7.252
27966W        W69977  10.659  19.284   3.912
27967W        W69978  11.229  13.224   0.248
27968W        W69979   1.579  16.054   1.268
27969W        W69980   1.039   8.554   9.442
27970W        W69981   8.069  14.224   9.942
27971W        W69982  17.319   6.774   8.622
27972W        W69983   4.699   1.324   9.362
27973W        W69984  20.819  21.164   9.182
27974W        W69985  15.829  25.161   1.028
27975W        W69986   2.029  14.674   9.712
27976W        W69987   5.509  16.104  10.702
27977W        W69988  15.249  10.494   8.722
27978W        W69989  11.459  10.124   8.482
27979W        W69990  19.389  15.944   8.262
27980W        W69991   5.349  22.501   0.678
27981W        W69992  12.309  14.884  11.302
27982W        W69993   4.849  24.501  15.382
27983W        W69994   3.619   9.294   2.622
27984W        W69995   5.649  19.304   3.072
27985W        W69996  20.109  17.154   9.262
27986W        W69997  21.919  14.464   1.788
27987W        W69998  14.139  18.424   9.162
27988W        W69999   8.609   6.704   2.832
27989W        W70000  17.859  24.981  10.552
27990W        W70001  23.619  11.984   9.052
27991W        W70002  14.219   1.714   0.658
27992W        W70003   0.579  24.801  10.962
27993W        W70004  24.069  15.694   9.632
27994W        W70005  23.909   4.184   2.488
27995W        W70006   2.499   5.714   9.452
27996W        W70007   8.189  18.564  10.292
27997W        W70008   8.209  18.304   3.312
27998W        W70009   6.439  13.724   9.812
27999W        W70010   4.099  18.614   8.932
28000W        W70011  16.829  15.574  11.262
28001W        W70012   8.939  25.581   7.942
28002W        W70013  22.539  15.774   1.978
28003W        W70014  25.229  12.574   2.812
28004W        W70015   8.249  17.804   0.308
28005W        W70016   1.099  15.864   8.192
28006W        W70017  15.919  10.404  15.192
28007W        W70018  20.759  18.684  10.402
28008W        W70019   1.649  18.404   0.678
28009W        W70020  10.339  18.894   3.722
28010W        W70021  16.029   5.624  10.742
28011W        W70022  18.739   0.154   8.232
28012W        W70023  20.749  22.321  11.682
28013W        W70024   0.209  20.024   0.108
28014W        W70025   0.419  13.054  10.862
28015W        W70026  13.359   7.164   0.178
28016W        W70027  13.319   0.414  10.292
28017W        W70028  10.479   3.534  15.412
28018W        W70029  15.129  17.154   2.632
28019W        W70030  19.109  16.904   8.092
28020W        W70031  13.609   2.844   3.882
28021W        W70032   7.189   2.984   1.248
28022W        W70033   6.009  11.524   9.882
28023W        W70034  16.529  10.044   8.962
28024W        W70035  19.779  25.241   7.552
28025W        W70036  18.599   6.174   9.452
28026W        W70037  21.249  19.984   1.398
28027W        W70038  13.329  22.311   2.692
28028W        W70039   3.199   8.754  15.852
28029W        W70040  15.529  19.874  10.612
28030W        W70041   5.589  22.101  10.232
28031W        W70042  25.509   2.084   7.872
28032W        W70043  22.539  13.154  10.792
28033W        W70044  11.979  22.911   9.302
28034W        W70045  13.499  16.774   1.318
28035W        W70046   3.739   5.484   9.732
28036W        W70047  23.859  15.854   2.562
28037W        W70048   6.809  18.254   0.558
28038W        W70049   1.199  12.874   1.018
28039W        W70050  16.299  16.064   1.768
28040W        W70051  19.339   6.524   9.952
28041W        W70052   9.039  13.194  15.742
28042W        W70053  17.679  18.164   8.912
28043W        W70054  25.569  14.884  11.822
28044W        W70055  20.959   0.274   9.932
28045W        W70056  21.249   5.624  11.922
28046W        W70057   0.031  12.164   8.762
28047W        W70058  20.579  13.724   2.942
28048W        W70059  23.969   9.004  10.222
28049W        W70060   7.549   2.044  15.152
28050W        W70061  20.849   7.074   9.042
28051W        W70062   6.879   6.894  10.272
28052W        W70063  18.429  23.261  11.872
28053W        W70064  14.749   4.144   8.992
28054W        W70065   9.669  24.861   9.642
28055W        W70066  11.639  11.934  14.912
28056W        W70067  19.939  13.234   1.278
28057W        W70068  25.119   1.594  11.382
28058W        W70069  12.559   4.144   3.292
28059W        W70070   6.839  20.684  15.692
28060W        W70071  24.139  22.051   3.882
28061W        W70072  23.939   3.724   8.762
28062W        W70073  15.239   6.464   1.508
28063W        W70074   6.009   2.094   3.322
28064W        W70075  17.579   9.004   2.832
28065W        W70076   9.729  13.534   9.562
28066W        W70077  24.669   1.204   1.278
28067W        W70078  12.789   7.054  15.242
28068W        W70079   2.539  19.804   7.972
28069W        W70080  17.269  12.894   3.352
28070W        W70081  22.989   3.284   9.742
28071W        W70082  17.459   1.844   1.598
28072W        W70083   4.699  18.174   1.728
28073W        W70084   7.289   0.524   8.462
28074W        W70085   4.849  11.684   7.232
28075W        W70086   8.369   7.934   1.248
28076W        W70087  19.479   7.774   3.142
28077W        W70088  24.159  13.314  11.672
28078W        W70089  20.899  13.134   8.342
28079W        W70090   0.889  18.214  11.682
28080W        W70091   8.789   8.784   3.842
28081W        W70092  17.889  11.674  15.782
28082W        W70093  23.199   4.984   0.478
28083W        W70094   0.449   6.964   7.562
28084W        W70095  24.779   2.994  11.022
28085W        W70096  17.129   3.844   2.018
28086W        W70097  25.359  24.561  10.732
28087W        W70098  13.179   3.054  10.832
28088W        W70099  21.409  16.394   9.472
28089W        W70100   8.489  11.184   3.622
28090W        W70101   3.829  11.794   2.398
28091W        W70102  18.969  19.634   1.918
28092W        W70103  18.799   5.374   3.022
28093W        W70104  11.229  23.041  11.222
28094W        W70105  25.369  19.494   3.042
28095W        W70106  24.479   3.834   7.982
28096W        W70107  12.179  16.344   0.898
28097W        W70108  15.319  11.324   9.762
28098W        W70109  12.639   5.934   4.022
28099W        W70110  22.109   3.664   0.888
28100W        W70111  20.129   6.584  11.332
28101W        W70112  14.639  22.441  10.422
28102W        W70113   8.239  24.171   3.082
28103W        W70114   7.859  24.091   1.338
28104W        W70115   6.479  23.511   4.252
28105W        W70116  17.309   2.414   8.162
28106W        W70117  25.229  14.954   9.602
28107W        W70118  18.609   3.684   0.268
28108W        W70119  12.039  12.854  15.002
28109W        W70120  17.839  19.924   9.962
28110W        W70121   9.299   2.254   1.488
28111W        W70122  13.239  16.064   9.082
28112W        W70123   3.059   1.044   1.278
28113W        W70124   3.899  13.034  10.742
28114W        W70125   0.349  25.351  10.822
28115W        W70126  23.299   2.364   8.982
28116W        W70127   7.549  23.581   9.912
28117W        W70128  10.489   1.784  14.942
28118W        W70129   4.009  12.544  10.012
28119W        W70130  16.569  14.724   8.382
28120W        W70131   6.199  13.254  10.192
28121W        W70132   9.969  13.214   0.688
28122W        W70133  22.309  22.361  10.652
28123W        W70134  10.979  20.394   0.968
28124W        W70135   2.489   5.854  10.032
28125W        W70136   9.329  11.904   0.688
28126W        W70137  24.429  18.844   3.412
28127W        W70138  12.469   3.344   3.762
28128W        W70139  25.209   3.914   0.268
28129W        W70140  15.629   8.874   9.252
28130W        W70141   7.669  10.984   3.032
28131W        W70142   6.629   4.014   9.902
28132W        W70143   9.669   4.494   0.808
28133W        W70144  15.939  12.044   9.372
28134W        W70145  17.459  22.421  11.112
28135W        W70146   7.259  20.214   1.818
28136W        W70147  21.269  22.211   9.172
28137W        W70148  10.099  10.834   2.792
28138W        W70149  19.869   2.314   1.028
28139W        W70150  15.289  13.054   1.518
28140W        W70151  13.139  24.211   9.272
28141W        W70152   9.569   1.304   1.768
28142W        W70153  11.299  15.914   2.278
28143W        W70154  18.439   1.594  11.112
28144W        W70155  21.659  17.314   8.422
28145W        W70156  24.199   6.174   9.232
28146W        W70157  12.409   4.024   2.288
28147W        W70158   1.839   6.744   9.822
28148W        W70159  13.329  19.174   9.772
28149W        W70160  19.679  13.314  10.542
28150W        W70161  14.779  13.134   4.492
28151W        W70162   5.739   5.884   7.222
28152W        W70163  25.519   0.384   9.452
28153W        W70164   2.429   9.484   1.528
28154W        W70165  19.429  19.624   2.378
28155W        W70166  18.809  17.394   0.538
28156W        W70167   4.309   0.824   1.058
28157W        W70168  20.109  25.071   0.998
28158W        W70169  21.179  13.924   2.188
28159W        W70170  18.469  10.974  15.432
28160W        W70171   9.559   3.604  15.102
28161W        W70172   5.929   2.834   0.728
28162W        W70173  17.649  13.614   1.458
28163W        W70174   7.299   1.934  10.652
28164W        W70175  12.309  19.824  15.372
28165W        W70176   9.239   3.014  10.162
28166W        W70177  13.159  23.691   8.832
28167W        W70178  24.249  14.504   7.772
28168W        W70179  23.229  22.421  11.232
28169W        W70180   9.069   6.514  10.212
28170W        W70181  18.369  22.211  11.252
28171W        W70182  23.599  20.834   2.168
28172W        W70183   3.309  17.064  15.872
28173W        W70184  12.329  23.561  11.862
28174W        W70185   1.539  16.154  10.002
28175W        W70186  17.349   7.434   2.822
28176W        W70187  11.509   5.384   8.412
28177W        W70188  16.659  13.014   9.572
28178W        W70189  22.789   6.554   2.602
28179W        W70190   5.929   3.384  10.252
28180W        W70191   5.699   0.124   9.312
28181W        W70192   4.579  24.001   8.192
28182W        W70193   4.609  25.221   2.882
28183W        W70194   5.699   6.594  10.392
28184W        W70195  17.609  21.741   9.642
28185W        W70196  21.009   8.724   4.512
28186W        W70197  21.819   8.614   9.202
28187W        W70198   1.709   9.404   1.168
28188W        W70199  20.929  22.161   1.508
28189W        W70200  16.739  15.574   3.062
28190W        W70201  10.469  10.394   4.302
28191W        W70202   9.109   6.634  15.682
28192W        W70203  22.599  10.404  10.292
28193W        W70204  12.659  13.664  15.842
28194W        W70205  22.849  13.824   7.892
28195W        W70206   8.689   5.544  10.152
28196W        W70207  15.289   4.804   2.008
28197W        W70208   3.289   1.244   8.602
28198W        W70209  10.609  10.984   0.638
28199W        W70210  24.869  11.704   0.888
28200W        W70211   3.319  13.154  15.412
28201W        W70212   8.439   0.884   1.098
28202W        W70213  22.979   8.304  11.092
28203W        W70214  10.269  12.984   3.342
28204W        W70215  14.449  13.894   2.198
28205W        W70216  10.159  12.114   1.258
28206W        W70217  22.759  23.091   2.138
28207W        W70218  16.359  23.861   3.802
28208W        W70219  24.949   1.824   3.352
28209W        W70220   6.049  13.724   3.022
28210W        W70221   5.789  22.491  10.532
28211W        W70222   4.279   3.174   8.672
28212W        W70223  18.439   7.414   2.378
28213W        W70224   9.489  19.304  10.212
28214W        W70225  17.219  20.364   0.378
28215W        W70226  15.849   0.224   2.038
28216W        W70227  17.599   2.834   8.982
28217W        W70228  13.389   9.614   8.102
28218W        W70229   5.209  23.651   8.762
28219W        W70230   5.149  21.204   8.012
28220W        W70231   3.779  12.834   7.122
28221W        W70232   8.269   6.204   9.722
28222W        W70233   2.839   8.784   0.928
28223W        W70234   7.589   0.494   9.352
28224W        W70235   7.819  18.544   2.188
28225W        W70236   6.069  18.124   1.688
28226W        W70237  15.919   2.234   9.922
28227W        W70238   4.309  16.764  15.752
28228W        W70239   3.769   9.464   0.298
28229W        W70240  12.169   1.914  14.452
28230W        W70241   1.669  20.114  10.252
28231W        W70242   5.879  16.114   7.392
28232W        W70243   5.379   5.694  15.722
28233W        W70244  23.519   2.304   8.352
28234W        W70245   3.449  17.644   4.472
28235W        W70246   3.289  20.204   7.532
28236W        W70247   3.819   7.734   3.192
28237W        W70248  22.689  20.194   9.632
28238W        W70249  14.969   0.454   0.098
28239W        W70250  11.499  17.384  15.622
28240W        W70251  21.189   7.924   8.932
28241W        W70252  20.629  16.014   8.872
28242W        W70253  19.909   4.434  10.762
28243W        W70254   1.199  15.074   3.162
28244W        W70255  25.099  22.501   7.882
28245W        W70256  11.319   4.394   2.792
28246W        W70257  18.169   1.304   2.872
28247W        W70258  18.499   0.354   3.432
28248W        W70259  12.719   5.784   9.762
28249W        W70260   4.289   3.204   1.928
28250W        W70261   1.579  14.494   1.588
28251W        W70262  18.689  18.754   3.852
28252W        W70263  18.129  14.354   8.442
28253W        W70264  22.219   8.994   7.222
28254W        W70265   2.559   1.534   9.982
28255W        W70266  13.729  10.574   3.172
28256W        W70267  24.309  17.494   8.872
28257W        W70268  19.579  10.494   9.252
28258W        W70269  10.399  18.684   0.598
28259W        W70270   0.319  18.834   1.358
28260W        W70271   9.329   0.184   0.958
28261W        W70272  19.229  23.501  10.172
28262W        W70273  21.309  11.614  11.722
28263W        W70274  22.819   1.974   1.948
28264W        W70275  11.619  21.264   8.202
28265W        W70276  10.209   0.414  15.822
28266W        W70277  14.259  18.964   0.698
28267W        W70278   1.159  10.154   2.078
28268W        W70279  25.379  10.254   8.462
28269W        W70280  12.879  24.981   1.178
28270W        W70281  10.939  23.871   8.562
28271W        W70282  17.689  13.824   3.212
28272W        W70283  12.529  14.844   2.642
28273W        W70284  20.729   3.694  15.792
28274W        W70285   0.689   8.904  11.752
28275W        W70286  21.059   5.334   1.678
28276W        W70287  17.409  24.761   9.212
28277W        W70288   8.399  24.861   0.478
28278W        W70289   0.419   5.084   8.312
28279W        W70290   5.769  12.794   2.842
28280W        W70291  21.319   8.694   9.782
28281W        W70292  11.119  19.524   3.512
28282W        W70293   6.219   2.144   1.388
28283W        W70294  18.919   6.134   2.028
28284W        W70295  13.419   6.564   0.858
28285W        W70296   0.799   6.034   2.962
28286W        W70297  12.859  10.174  10.122
28287W        W70298   7.089  14.574  11.032
28288W        W70299  13.139   1.744   8.462
28289W        W70300   9.189  17.754  11.062
28290W        W70301  22.839  18.874   7.642
28291W        W70302  25.039  22.441   2.258
28292W        W70303   3.749  17.354   3.642
28293W        W70304  22.689  19.034  12.702
28294W        W70305  16.079   6.514   4.472
28295W        W70306  17.519  19.634   9.582
28296W        W70307  14.949  19.454  15.812
28297W        W70308  10.629  17.964  15.132
28298W        W70309   1.679  21.441   2.438
28299W        W70310  23.389   7.274   9.302
28300W        W70311  22.399  22.201   9.272
28301W        W70312   4.969  22.281   3.512
28302W        W70313  22.659   1.484  11.592
28303W        W70314  15.349  19.734   8.792
28304W        W70315   1.049   6.674  10.222
28305W        W70316   7.539  24.871   3.112
28306W        W70317  15.249  14.174  15.292
28307W        W70318   5.329   3.754  14.902
28308W        W70319  18.549  13.924   0.318
28309W        W70320  12.119  24.361   2.982
28310W        W70321   6.919  22.601   9.742
28311W        W70322  17.249   1.144   0.578
28312W        W70323   8.629  19.924   1.068
28313W        W70324  16.309   6.434   2.522
28314W        W70325  19.639   5.764   2.378
28315W        W70326  20.019   0.864   2.328
28316W        W70327   9.429  12.644   2.378
28317W        W70328   0.719  17.554   8.512
28318W        W70329  12.229   9.034   0.228
28319W        W70330  23.879  14.444   8.072
28320W        W70331  20.779  18.744  12.142
28321W        W70332  21.919   3.064   0.548
28322W        W70333   2.239   9.824  10.562
28323W        W70334  25.079   6.794  10.232
28324W        W70335  12.109  16.704   4.192
28325W        W70336   2.689   7.534   2.592
28326W        W70337  16.359   8.584   1.688
28327W        W70338  11.489   7.054  15.492
28328W        W70339  12.829  12.234   3.182
28329W        W70340  11.079  16.584   3.032
28330W        W70341   6.909  20.514   4.272
28331W        W70342  13.909  12.914   5.252
28332W        W70343  23.229   7.174   2.692
28333W        W70344   5.389  18.624   8.732
28334W        W70345   2.629  13.604   8.702
28335W        W70346  19.869  21.651   7.932
28336W        W70347   0.069  19.474  10.442
28337W        W70348  15.129  19.184  10.572
28338W        W70349  19.559  16.984   4.202
28339W        W70350   5.999  14.094   3.412
28340W        W70351  24.149  25.431   1.868
28341W        W70352  22.999  22.911  10.972
28342W        W70353   7.379  19.154  10.992
28343W        W70354  20.219  18.954   2.852
28344W        W70355  11.429   1.114  15.612
28345W        W70356  23.649  22.511  12.092
28346W        W70357  20.159  11.464  15.032
28347W        W70358   9.809   3.724   1.128
28348W        W70359  14.459   6.814   9.702
28349W        W70360   6.079  19.024   4.072
28350W        W70361   5.959  19.454   8.712
28351W        W70362  22.059  13.374   3.132
28352W        W70363   9.709  23.791  11.102
28353W        W70364   9.399  17.804   4.042
28354W        W70365  11.089  13.994   0.678
28355W        W70366   1.409   4.344   2.198
28356W        W70367  12.279  12.204  15.682
28357W        W70368  14.719   5.864   1.178
28358W        W70369  23.579  10.984   8.042
28359W        W70370  14.389   3.414  10.592
28360W        W70371  14.649   5.644   4.012
28361W        W70372  15.129  20.184   2.378
28362W        W70373  15.459   4.304   2.088
28363W        W70374  21.769  18.444  11.272
28364W        W70375  17.719  11.054   1.918
28365W        W70376  23.579  24.541   1.158
28366W        W70377  24.419   2.934   9.702
28367W        W70378  23.309  25.341  10.192
28368W        W70379   7.349  19.194   8.452
28369W        W70380  20.089   5.454   8.822
28370W        W70381  25.529  18.294  10.832
28371W        W70382   7.819   2.974   0.328
28372W        W70383   8.389   6.314   3.692
28373W        W70384  13.609  24.341   1.648
28374W        W70385  12.009  22.641   0.638
28375W        W70386  14.509  24.481   9.382
28376W        W70387  22.989  22.211   3.192
28377W        W70388  17.429   6.974  10.732
28378W        W70389  18.389  24.081   0.578
28379W        W70390  13.579  21.871  10.302
28380W        W70391  18.389  21.224   2.468
28381W        W70392  18.159  13.794   8.392
28382W        W70393  12.319  16.114  14.902
28383W        W70394  18.539  10.384   8.672
28384W        W70395  13.389   5.214   3.122
28385W        W70396  20.559  21.274   2.488
28386W        W70397   3.049   7.534   1.938
28387W        W70398   5.059  22.221   1.788
28388W        W70399  13.609   7.204  10.752
28389W        W70400   5.349  15.824  10.222
28390W        W70401   3.209  10.924   9.452
28391W        W70402   7.279  18.744   3.772
28392W        W70403  20.199  13.264  11.722
28393W        W70404  21.769  12.934  12.342
28394W        W70405   3.869   1.274   1.848
28395W        W70406  10.569  18.234   2.562
28396W        W70407  16.739   8.194   3.212
28397W        W70408  17.239  23.791   2.852
28398W        W70409  12.549   3.614   8.972
28399W        W70410   3.599  11.164   9.652
28400W        W70411  24.929   9.644   1.818
28401W        W70412   2.599   6.454   2.662
28402W        W70413  17.509  16.424  10.072
28403W        W70414  17.919   2.054   1.358
28404W        W70415  21.239  18.954   8.172
28405W        W70416  14.569  14.034   3.232
28406W        W70417  19.859  22.201  10.652
28407W        W70418  18.549  21.961  10.452
28408W        W70419   4.089   2.354  11.272
28409W        W70420  21.049  15.554   2.048
28410W        W70421  19.049  11.744  15.842
28411W        W70422  19.689   7.024   9.572
28412W        W70423   1.689  22.511  12.042
28413W        W70424   7.349   4.964   7.932
28414W        W70425  22.729  18.364   7.542
28415W        W70426  13.719  11.704   4.542
28416W        W70427  13.709  20.984   9.512
28417W        W70428  24.929   5.114   8.482
28418W        W70429  13.979  19.294   2.398
28419W        W70430  15.749   9.614   7.982
28420W        W70431   3.599   2.264   3.412
28421W        W70432  25.029   2.374   9.782
28422W        W70433   1.939  23.461   3.832
28423W        W70434  25.239  13.444   0.818
28424W        W70435   9.669   7.234  15.322
28425W        W70436   4.659  16.784  11.422
28426W        W70437   9.719  11.084   0.588
28427W        W70438   0.789  17.694   0.458
28428W        W70439  21.859   9.434   7.982
28429W        W70440  17.809   8.134   9.882
28430W        W70441  20.039   3.774  10.412
28431W        W70442  21.999  17.004   1.788
28432W        W70443  22.729  16.164   7.172
28433W        W70444  15.909  19.044   3.092
28434W        W70445  23.749   1.824  10.362
28435W        W70446  13.309  14.924  14.742
28436W        W70447   5.099   1.034  15.392
28437W        W70448   3.149   9.394   2.772
28438W        W70449   3.559   0.164   3.102
28439W        W70450  24.099  19.174   8.372
28440W        W70451  10.179  15.624   4.402
28441W        W70452  23.829  13.274   3.622
28442W        W70453  16.689   1.244   3.002
28443W        W70454   8.479  23.081  15.662
28444W        W70455  14.869  17.794   1.738
28445W        W70456   7.599  22.911   9.312
28446W        W70457   4.439  13.634   7.902
28447W        W70458   5.399  10.504   7.782
28448W        W70459  20.699  13.924   1.178
28449W        W70460  20.029  10.724   9.392
28450W        W70461  23.809  19.074   2.772
28451W        W70462  19.439  13.984  11.062
28452W        W70463  20.839  12.774  11.142
28453W        W70464   5.979  23.371   2.852
28454W        W70465  21.629  14.744   8.872
28455W        W70466  22.419   7.314   1.018
28456W        W70467  15.089  22.631   0.738
28457W        W70468   1.349   9.344   7.272
28458W        W70469  14.739  16.614   4.102
28459W        W70470  11.119  23.401   8.492
28460W        W70471  13.919  23.701   8.372
28461W        W70472   5.189   1.004   0.478
28462W        W70473  24.829  21.274   9.422
28463W        W70474  16.679   6.094   1.748
28464W        W70475  16.139   8.614   3.122
28465W        W70476  24.209   6.644   6.872
28466W        W70477   4.249  10.924   1.168
28467W        W70478  15.659  11.504  14.432
28468W        W70479   0.199  12.064  10.712
28469W        W70480   1.389   7.014  10.402
28470W        W70481   5.779  23.391  11.962
28471W        W70482  23.129  21.064   9.132
28472W        W70483  13.879  24.591   9.932
28473W        W70484  13.909  23.131  11.022
28474W        W70485  19.589  10.854   1.488
28475W        W70486   4.179   9.524   9.072
28476W        W70487  23.249  20.414   7.962
28477W        W70488  22.109   1.774   0.208
28478W        W70489  10.169   7.584   0.638
28479W        W70490   8.869   7.384   2.922
28480W        W70491  10.349  12.614   9.282
28481W        W70492  13.659   2.744   3.392
28482W        W70493   7.379  12.754   2.942
28483W        W70494   1.839  21.431   8.132
28484W        W70495   0.041  16.074   1.328
28485W        W70496   3.109   7.484  15.542
28486W        W70497  23.779   1.384  11.452
28487W        W70498   5.129  10.354   9.802
28488W        W70499  13.169   0.964   9.862
28489W        W70500  24.619  10.234  15.572
28490W        W70501  23.939  10.124   9.182
28491W        W70502   9.099  11.794   3.652
28492W        W70503   8.019  11.864  15.682
28493W        W70504   9.829  19.234   1.098
28494W        W70505  19.539   7.364   1.188
28495W        W70506  25.279   3.224   9.952
28496W        W70507   8.659  10.084   2.992
28497W        W70508   7.979  13.654  11.202
28498W        W70509   3.379  14.074   0.898
28499W        W70510  14.029  14.084  14.942
28500W        W70511  17.979   8.094  15.472
28501W        W70512  24.309  11.544   3.082
28502W        W70513  20.629  22.731  10.222
28503W        W70514   3.179  23.241   7.302
28504W        W70515   8.249  25.351   9.422
28505W        W70516  21.739  23.111  10.702
28506W        W70517  13.389  20.884   8.622
28507W        W70518  20.889   4.044  10.802
28508W        W70519   0.709  23.351   7.002
28509W        W70520  16.739   4.064   9.872
28510W        W70521   4.299   2.184   8.952
28511W        W70522  15.969   9.294   4.662
28512W        W70523  14.539  10.394  14.222
28513W        W70524  10.459  12.974   9.672
28514W        W70525  19.109  15.324   3.262
28515W        W70526   8.969   4.604   0.518
28516W        W70527  15.919  20.334   3.312
28517W        W70528  13.229  20.744   0.108
28518W        W70529   6.329  10.744  15.392
28519W        W70530   9.709   9.104   9.002
28520W        W70531   5.949  17.174  10.502
28521W        W70532  24.119   1.184   9.072
28522W        W70533  22.819  22.051   2.138
28523W        W70534  12.299  12.314   0.328
28524W        W70535   6.169   1.194   1.408
28525W        W70536  25.239   0.084   3.262
28526W        W70537   1.489   0.734   0.578
28527W        W70538   3.399  23.521   2.822
28528W        W70539   3.039  16.454  10.002
28529W        W70540  22.339  22.531  15.792
28530W        W70541   8.119  19.714  10.372
28531W        W70542   6.429  12.904   7.422
28532W        W70543   0.069  17.034   1.248
28533W        W70544   7.849   2.634   1.058
28534W        W70545  20.659  19.134   2.438
28535W        W70546  16.459  14.934   1.478
28536W        W70547   6.519  18.104   2.572
28537W        W70548  14.239  16.134   3.742
28538W        W70549  14.309  11.284   2.592
28539W        W70550  19.269  12.284   3.272
28540W        W70551  11.909  12.594   0.328
28541W        W70552   1.069  15.294   1.718
28542W        W70553   0.359   7.694   8.612
28543W        W70554  24.069   3.004   7.782
28544W        W70555   4.789   7.904  11.992
28545W        W70556   5.249  15.614   1.078
28546W        W70557  13.089   3.424  11.262
28547W        W70558  23.599  24.331   9.632
28548W        W70559  18.509  17.124   2.378
28549W        W70560  12.009  16.184   8.442
28550W        W70561   9.549  13.724   1.458
28551W        W70562  22.219  14.804   0.438
28552W        W70563  22.639   1.814   3.192
28553W        W70564  13.669  25.591  10.262
28554W        W70565   5.339  13.864   7.912
28555W        W70566  17.439   8.464   8.402
28556W        W70567  15.129  13.494   2.942
28557W        W70568   6.909   2.324   8.932
28558W        W70569   8.509   9.764   0.978
28559W        W70570  14.809  15.024  15.462
28560W        W70571   5.319   0.674   7.412
28561W        W70572  21.369  23.911   9.432
28562W        W70573  24.329   8.394   8.842
28563W        W70574  20.909   4.494   9.182
28564W        W70575  19.259  19.194  10.092
28565W        W70576  11.069   8.594   2.882
28566W        W70577   0.409  17.884   7.962
28567W        W70578  19.809  11.284   2.582
28568W        W70579  22.009   6.334  10.412
28569W        W70580  21.039   2.094   8.002
28570W        W70581  15.309   3.484   4.172
28571W        W70582   5.439  12.724  10.132
28572W        W70583  17.819  18.974   8.902
28573W        W70584  15.989  23.491   0.748
28574W        W70585   8.879   6.094  14.872
28575W        W70586   5.309  12.364   9.352
28576W        W70587  17.229   6.844   1.718
28577W        W70588  10.449  24.481   9.282
28578W        W70589   5.199  24.901   0.968
28579W        W70590  15.219   9.484  10.212
28580W        W70591   6.329  20.594  11.242
28581W        W70592  19.559   6.864   1.368
28582W        W70593  11.779   1.244   0.948
28583W        W70594   2.909   5.984   7.602
28584W        W70595  14.489   2.094   0.958
28585W        W70596  18.589  14.454   2.542
28586W        W70597   1.489   4.534  10.742
28587W        W70598   7.899   4.014   3.192
28588W        W70599  23.209  17.674  11.742
28589W        W70600  25.569  11.534  10.642
28590W        W70601  17.409   6.524  10.482
28591W        W70602   9.839   5.284   9.702
28592W        W70603  25.159  10.654   0.498
28593W        W70604  18.689  24.351   8.482
28594W        W70605   9.009  24.741  15.422
28595W        W70606  10.479   6.374  15.152
28596W        W70607  16.179   6.974   4.672
28597W        W70608  24.349   6.254  14.792
28598W        W70609  15.009  22.731   8.892
28599W        W70610   7.079   5.334   8.252
28600W        W70611  16.939  24.911  10.082
28601W        W70612  21.169   5.144   3.472
28602W        W70613  17.309  15.654   3.222
28603W        W70614   7.129  25.041   2.842
28604W        W70615  19.579   3.664   1.358
28605W        W70616  13.719  11.104   9.782
28606W        W70617  22.199  15.564   3.562
28607W        W70618  15.149   3.174   1.488
28608W        W70619   2.929   4.494   7.582
28609W        W70620  16.409   5.184   2.932
28610W        W70621   5.049   4.254   1.888
28611W        W70622  25.499  25.331  11.222
28612W        W70623   5.519   4.254   3.422
28613W        W70624  24.579  17.674  11.212
28614W        W70625  10.169   2.634   4.172
28615W        W70626  16.729  13.544   1.548
28616W        W70627   3.209   4.034   8.392
28617W        W70628  25.099   5.044   7.482
28618W        W70629   3.489   6.604  10.302
28619W        W70630   0.939  24.621  12.112
28620W        W70631  25.069  25.131   0.398
28621W        W70632  18.539   6.464  10.932
28622W        W70633   3.059   2.354   1.468
28623W        W70634  10.379  18.244  15.532
28624W        W70635   8.749  24.641   9.062
28625W        W70636   1.989   3.824   3.222
28626W        W70637  18.629  13.954  10.692
28627W        W70638   4.889  14.604  10.542
28628W        W70639  24.519  17.894  11.642
28629W        W70640  19.669  16.404   8.412
28630W        W70641   1.939   8.444   0.328
28631W        W70642   3.859  19.044   0.748
28632W        W70643  16.559  18.924   3.112
28633W        W70644  20.859   9.154   3.902
28634W        W70645  11.889   6.134   8.862
28635W        W70646   0.689  20.684   9.252
28636W        W70647  17.319  14.934  10.652
28637W        W70648  13.529  10.234   9.402
28638W        W70649   6.889  25.191   2.418
28639W        W70650  15.259   5.404  15.772
28640W        W70651  15.429  21.791   1.278
28641W        W70652  16.469   8.314   0.278
28642W        W70653  13.959  13.264   2.512
28643W        W70654  14.269   8.164   1.778
28644W        W70655  12.739   3.064   3.342
28645W        W70656  24.099  13.024  10.512
28646W        W70657  24.279  20.554   7.942
28647W        W70658   1.269  25.391   9.272
28648W        W70659   8.949  10.164   1.408
28649W        W70660   0.669  22.821   1.708
28650W        W70661  16.249  10.034   2.762
28651W        W70662  22.649  24.001  11.512
28652W        W70663  20.579   6.984   8.082
28653W        W70664   2.229  16.694   0.048
28654W        W70665   4.599   5.784   7.172
28655W        W70666  25.469  24.131   4.042
28656W        W70667  18.409  18.254   8.052
28657W        W70668  11.269  22.021   2.388
28658W        W70669   1.379  24.641  10.512
28659W        W70670  18.329  18.994   9.842
28660W        W70671   9.309   3.044   9.232
28661W        W70672  20.709  21.861   1.248
28662W        W70673  17.659   8.014   0.268
28663W        W70674  20.599  14.934  12.052
28664W        W70675   7.189   3.724   2.542
28665W        W70676   7.249  13.214  10.022
28666W        W70677  22.999   1.354   0.458
28667W        W70678  17.419  10.674   2.168
28668W        W70679  24.779  23.801   1.738
28669W        W70680  10.899   6.844  11.162
28670W        W70681  20.749  23.141  10.982
28671W        W70682   1.919   9.484   8.792
28672W        W70683  11.909  18.424   1.608
28673W        W70684  22.959  14.124  15.542
28674W        W70685  24.489   9.064   1.068
28675W        W70686  13.179  24.021  11.942
28676W        W70687   3.139   5.294  10.472
28677W        W70688   1.349   9.774   0.148
28678W        W70689  11.369  15.054   4.862
28679W        W70690  20.639  23.691   3.022
28680W        W70691  17.399  23.371   8.982
28681W        W70692  13.089  18.204   9.672
28682W        W70693  13.849   9.004   1.108
28683W        W70694   5.899  12.724   8.622
28684W        W70695   3.549   7.384  12.142
28685W        W70696  19.119  23.701  10.662
28686W        W70697  10.719   5.184   2.418
28687W        W70698  11.539   4.654   8.792
28688W        W70699  13.779   3.364   2.268
28689W        W70700  19.259  22.691  12.142
28690W        W70701   7.939  24.331   2.662
28691W        W70702  18.639   4.324   3.132
28692W        W70703  10.719  15.494   5.302
28693W        W70704   6.149  13.784   0.648
28694W        W70705  15.159  13.204   4.182
28695W        W70706   0.079  15.064   9.802
28696W        W70707   0.179   7.674   3.232
28697W        W70708  18.239  18.154   0.908
28698W        W70709  21.139  24.331   9.622
28699W        W70710   7.439  21.501  11.002
28700W        W70711   9.899   0.914   1.538
28701W        W70712  10.799   3.464   8.482
28702W        W70713  19.859  23.261   0.378
28703W        W70714  12.999  12.804   2.308
28704W        W70715  13.989  11.064   1.428
28705W        W70716   6.879   8.514   7.182
28706W        W70717   2.869   2.734   1.768
28707W        W70718  19.759   2.744   8.052
28708W        W70719   9.949  15.614  15.172
28709W        W70720   5.619  14.064   2.378
28710W        W70721   4.099  20.464   4.382
28711W        W70722   0.929   4.844  10.922
28712W        W70723  20.869  23.541   3.482
28713W        W70724  20.159  22.571   9.432
28714W        W70725   5.139   0.064  11.082
28715W        W70726  13.809  22.301  11.292
28716W        W70727  21.299   7.014  11.612
28717W        W70728   9.839   2.744   0.988
28718W        W70729  23.279   4.784  10.462
28719W        W70730  17.699  10.044   1.178
28720W        W70731  19.219   1.144   1.588
28721W        W70732  20.569  23.801   0.698
28722W        W70733  16.949   4.644   0.718
28723W        W70734  13.649   6.134   9.942
28724W        W70735  23.159   6.494  15.542
28725W        W70736  19.699  19.894   3.122
28726W        W70737   9.209   5.784   8.152
28727W        W70738  23.289  11.394   2.912
28728W        W70739  19.989  10.654  15.062
28729W        W70740  16.939  12.654   2.198
28730W        W70741  19.379  22.581   8.412
28731W        W70742   1.499  21.154   3.442
28732W        W70743  11.689  24.251   3.832
28733W        W70744   7.609  19.934   9.142
28734W        W70745   2.179  22.911   1.288
28735W        W70746  22.259   8.344   0.698
28736W        W70747   6.039   2.684   7.762
28737W        W70748  18.639  13.804  11.742
28738W        W70749   6.759  10.784  15.182
28739W        W70750  21.829   0.234  12.212
28740W        W70751  14.709  16.864   3.642
28741W        W70752   0.619  16.034  10.892
28742W        W70753  18.359   9.604   7.552
28743W        W70754  11.479   3.664   9.592
28744W        W70755  19.969  11.904  15.802
28745W        W70756  18.219   4.554   3.482
28746W        W70757   0.729  21.411   2.722
28747W        W70758  23.769  18.864   2.328
28748W        W70759   9.699  21.941   9.322
28749W        W70760  11.299  22.921  15.002
28750W        W70761  10.589   7.084   0.898
28751W        W70762   0.539  17.404   3.872
28752W        W70763   1.309  17.644  10.462
28753W        W70764   0.969  12.564  10.272
28754W        W70765   8.279   1.084   4.672
28755W        W70766  10.189  12.724   0.448
28756W        W70767   6.909   4.634  10.312
28757W        W70768  14.159   6.494   2.752
28758W        W70769   2.749   5.954   3.052
28759W        W70770  20.939  15.694   9.042
28760W        W70771  17.279   8.284   8.882
28761W        W70772   5.869   6.924   3.052
28762W        W70773  22.969  22.731  10.102
28763W        W70774  11.459   2.814   8.722
28764W        W70775   8.859  22.951   1.388
28765W        W70776  20.159  25.561   3.292
28766W        W70777  20.529  20.864   9.392
28767W        W70778  18.079  20.904   0.948
28768W        W70779  11.859   2.534   8.502
28769W        W70780   0.849  20.134  10.312
28770W        W70781   2.219  23.581  15.552
28771W        W70782   3.169  25.121  11.112
28772W        W70783  18.909  13.494   0.358
28773W        W70784   9.049  17.834   3.592
28774W        W70785  23.419  20.764   2.642
28775W        W70786   1.669  17.954   9.262
28776W        W70787   6.519  19.604   0.648
28777W        W70788  23.489   1.854   0.678
28778W        W70789   2.499  20.054   2.248
28779W        W70790   7.719  11.274  11.052
28780W        W70791   9.479  24.461   9.852
28781W        W70792  17.409  24.001   8.492
28782W        W70793  24.399  12.804   0.428
28783W        W70794  14.019  10.104   4.002
28784W        W70795  11.239   8.444  15.452
28785W        W70796  11.739   0.664   0.728
28786W        W70797  17.849  22.561   3.342
28787W        W70798  19.029  17.084   9.082
28788W        W70799   9.499   1.334  14.712
28789W        W70800  12.429  19.904  10.192
28790W        W70801   9.219   4.514   9.202
28791W        W70802   0.719  13.954  10.382
28792W        W70803  21.619  21.224   9.982
28793W        W70804   1.459  15.594   1.908
28794W        W70805   1.589   1.764  15.612
28795W        W70806  12.469  16.614  15.842
28796W        W70807  25.289   0.834   9.312
28797W        W70808   3.579  23.501  10.612
28798W        W70809  10.419   0.474   0.908
28799W        W70810  24.449   6.474   7.922
28800W        W70811   5.289  18.944   3.402
28801W        W70812  21.859  12.084  15.702
28802W        W70813  14.069  14.774   3.902
28803W        W70814  25.119   1.074   7.632
28804W        W70815  21.239   5.984   2.288
28805W        W70816  21.919  15.764   1.088
28806W        W70817  11.199  16.184   2.702
28807W        W70818   1.589  17.944   2.562
28808W        W70819   7.669  17.894   1.548
28809W        W70820   8.759  15.004   9.302
28810W        W70821  17.509  23.341   7.452
28811W        W70822   6.609   9.424   8.712
28812W        W70823  23.109   4.194   8.792
28813W        W70824  11.539  16.674   4.802
28814W        W70825  18.379   5.714   9.772
28815W        W70826  11.989  10.194   3.732
28816W        W70827  16.459  10.964   8.612
28817W        W70828   1.389  13.044   1.948
28818W        W70829  15.399  22.671  10.702
28819W        W70830  18.599  11.384   3.242
28820W        W70831   6.299  15.914   3.012
28821W        W70832  25.039  15.034   0.778
28822W        W70833  16.539  14.194   0.188
28823W        W70834  14.739  23.011   8.622
28824W        W70835  21.159  13.464  11.012
28825W        W70836  15.309   2.884  14.712
28826W        W70837   8.369   8.784   0.078
28827W        W70838  19.199  18.124  10.442
28828W        W70839  13.959   8.514  15.672
28829W        W70840  17.129  17.544   9.352
28830W        W70841   3.659  15.694   8.882
28831W        W70842  19.169  20.884   8.082
28832W        W70843  10.759   2.874  10.112
28833W        W70844   8.259  12.594  10.692
28834W        W70845   8.739   1.584   7.602
28835W        W70846  15.479  18.734   8.592
28836W        W70847   1.229  20.454  10.462
28837W        W70848  13.769  23.091   9.932
28838W        W70849   1.659  21.391   9.622
28839W        W70850   0.559   0.984   1.078
28840W        W70851  14.059  18.714   2.318
28841W        W70852  23.389   8.934   8.592
28842W        W70853  11.039  12.434   1.678
28843W        W70854  16.809   6.934   3.602
28844W        W70855  18.239  20.134   1.518
28845W        W70856  19.529   8.834   8.172
28846W        W70857  14.039  20.494   3.092
28847W        W70858   2.999   1.074   0.328
28848W        W70859  23.679  10.814  15.292
28849W        W70860  11.329  18.804   0.948
28850W        W70861  15.779  15.634  10.032
28851W        W70862  24.209   8.064  11.402
28852W        W70863  18.459  14.924   0.688
28853W        W70864   6.109  10.284   2.552
28854W        W70865  18.869   6.914  15.822
28855W        W70866  24.499  14.554   2.498
28856W        W70867   8.359  23.891  11.202
28857W        W70868  24.659   0.974   7.922
28858W        W70869  22.559  24.931   7.982
28859W        W70870  18.829  13.734  11.102
28860W        W70871  20.789  24.421   8.602
28861W        W70872  23.959  15.224  11.622
28862W        W70873   4.009  12.084  15.332
28863W        W70874   5.329  14.304   3.912
28864W        W70875   4.029   4.414   0.798
28865W        W70876  25.409  20.954   8.432
28866W        W70877  12.449  12.654   1.278
28867W        W70878  13.729   8.894   2.448
28868W        W70879   6.579  13.074   9.172
28869W        W70880  23.929   3.094   0.758
28870W        W70881  20.859  24.951   0.198
28871W        W70882  16.049   1.434   1.708
28872W        W70883  21.729   6.514   8.492
28873W        W70884  18.969  24.081   9.742
28874W        W70885   8.819  11.144   9.792
28875W        W70886  21.509  18.944   1.438
28876W        W70887   7.689  19.424  10.212
28877W        W70888  21.959  15.384  15.432
28878W        W70889  17.089  15.944   0.058
28879W        W70890  17.769  14.914   1.418
28880W        W70891  23.459  16.314   9.482
28881W        W70892  19.169  25.391  15.602
28882W        W70893   8.159  13.044   0.408
28883W        W70894  22.409   7.424  15.672
28884W        W70895  21.809   0.514  11.712
28885W        W70896  18.059   9.714   8.012
28886W        W70897  23.049  11.974   7.142
28887W        W70898   4.939   2.794   0.878
28888W        W70899  18.339   2.264   1.308
28889W        W70900  11.629   6.094  10.942
28890W        W70901  12.299  13.274   4.182
28891W        W70902  15.299   2.554   3.152
28892W        W70903  19.739  11.814   2.118
28893W        W70904  21.189  18.644  10.142
28894W        W70905  14.449   1.654   9.252
28895W        W70906  21.049  21.491  10.792
28896W        W70907   9.229   9.374   9.172
28897W        W70908   6.169   8.764   8.212
28898W        W70909  22.469  14.474  10.442
28899W        W70910  15.349  20.224   9.062
28900W        W70911  12.119  22.721   0.198
28901W        W70912  11.619  12.864   1.368
28902W        W70913  18.699   4.034   9.742
28903W        W70914   1.519   5.214   0.798
28904W        W70915   3.749   7.874   9.352
28905W        W70916   0.329  16.294   1.758
28906W        W70917  24.339   2.354   7.532
28907W        W70918   9.029   8.004  15.292
28908W        W70919  15.729   5.494  15.642
28909W        W70920  19.749  24.591   9.732
28910W        W70921   5.229  11.294   8.212
28911W        W70922  14.319   4.774   1.558
28912W        W70923  17.969  24.171   8.752
28913W        W70924   1.509  19.134   0.178
28914W        W70925   9.639   1.844   3.112
28915W        W70926  15.399  15.274  10.322
28916W        W70927   2.779  21.651   2.078
28917W        W70928  21.079  21.581   1.388
28918W        W70929   4.429   4.454   1.108
28919W        W70930  13.889   0.944  14.402
28920W        W70931   2.089   5.164   6.342
28921W        W70932  21.759  21.791   6.732
28922W        W70933  17.979   2.014  15.052
28923W        W70934   3.799   5.684   6.682
28924W        W70935  21.199  25.361   8.122
28925W        W70936   4.719  23.771   2.792
28926W        W70937   4.049  12.994   9.052
28927W        W70938  18.729  11.794   0.888
28928W        W70939  18.769  10.864  11.452
28929W        W70940   4.839   4.594   0.868
28930W        W70941  14.239  21.411   1.008
28931W        W70942   5.229   8.684  10.082
28932W        W70943  15.709  22.871  11.162
28933W        W70944  11.889  24.231   0.568
28934W        W70945   1.309   9.264   0.108
28935W        W70946  10.169  14.584  10.252
28936W        W70947   4.949   2.014   3.672
28937W        W70948  12.809   7.744   3.352
28938W        W70949   6.749  18.034   3.722
28939W        W70950  23.609  12.324   3.962
28940W        W70951  22.479  17.094   1.488
28941W        W70952  22.499  23.791   1.008
28942W        W70953  15.989   8.244   0.008
28943W        W70954   2.729   4.444   3.252
28944W        W70955   2.849  12.594   0.968
28945W        W70956   9.519   3.984   1.988
28946W        W70957  18.649  23.861   0.968
28947W        W70958  18.959  25.561  11.022
28948W        W70959  13.819   7.284   0.408
28949W        W70960  24.179  15.024   9.362
28950W        W70961   3.029   8.004   6.542
28951W        W70962   7.899   0.524   3.152
28952W        W70963  21.499   4.674   2.268
28953W        W70964   4.059  15.394   0.778
28954W        W70965   0.749   0.734  10.592
28955W        W70966   2.599   3.914   3.312
28956W        W70967  11.559  19.824   2.198
28957W        W70968  19.899   7.744   2.128
28958W        W70969  12.489  24.861   8.362
28959W        W70970  11.039  23.531   0.298
28960W        W70971   3.799  21.901  10.592
28961W        W70972  10.399   7.284  15.602
28962W        W70973   8.889   3.734   0.388
28963W        W70974  23.199  16.124  15.792
28964W        W70975   7.429  16.554   3.382
28965W        W70976  22.169   3.884   1.408
28966W        W70977   8.979  20.494  15.072
28967W        W70978  23.519   5.204  10.562
28968W        W70979   6.639  17.894   3.112
28969W        W70980  10.079   8.184   2.552
28970W        W70981  16.199   6.084   9.912
28971W        W70982   1.629  16.614   3.042
28972W        W70983  13.539  15.584  15.582
28973W        W70984   3.959   9.234   2.108
28974W        W70985   4.999  21.911  11.932
28975W        W70986  13.429  21.304  15.872
28976W        W70987  12.539  19.414  10.172
28977W        W70988  19.909   8.104   8.622
28978W        W70989   3.249   7.634  10.452
28979W        W70990  15.689  20.354  10.592
28980W        W70991  20.709   5.284   9.652
28981W        W70992   7.249  24.031   0.398
28982W        W70993  10.299  21.104   3.842
28983W        W70994  11.189  23.661   4.412
28984W        W70995   3.559  14.514   0.768
28985W        W70996   2.899  10.914   2.722
28986W        W70997  15.869  19.474  10.822
28987W        W70998  12.429   0.914   2.038
28988W        W70999  18.409   4.014   7.932
28989W        W71000   6.729  11.614   2.238
28990W        W71001   8.299  16.044   8.582
28991W        W71002  21.469  18.684  11.742
28992W        W71003  18.449  24.211   1.958
28993W        W71004   3.119  11.584   8.882
28994W        W71005  16.639  14.534   2.128
28995W        W71006   1.199  12.734   3.912
28996W        W71007  13.939  23.981   1.858
28997W        W71008  11.489   6.784   2.562
28998W        W71009   3.279  11.064   1.928
28999W        W71010   0.589  14.494  10.982
29000W        W71011   1.759  22.051   1.638
29001W        W71012  20.369   7.554   2.198
29002W        W71013  17.129  17.494   7.642
29003W        W71014  23.449  21.551   3.972
29004W        W71015  17.959   8.834   3.762
29005W        W71016   9.109  19.844   8.552
29006W        W71017  18.249  15.434   0.698
29007W        W71018  24.839  16.294   9.242
29008W        W71019  15.819  14.284   3.722
29009W        W71020  23.419  14.944   0.248
29010W        W71021  15.239   8.774   3.072
29011W        W71022   5.489  16.194   3.362
29012W        W71023  24.849  16.554  11.452
29013W        W71024   6.969  14.584   1.708
29014W        W71025  12.319   3.604  14.912
29015W        W71026  13.589   2.494  10.122
29016W        W71027  13.059   1.904   3.002
29017W        W71028   8.729  13.234  15.342
29018W        W71029  11.529  20.014  10.582
29019W        W71030  19.919  17.534  10.442
29020W        W71031  10.829  22.521   2.832
29021W        W71032  25.339  18.714   3.462
29022W        W71033  17.449   3.584   2.892
29023W        W71034   6.459  12.694  10.912
29024W        W71035  19.309  23.721   2.338
29025W        W71036  11.779  17.094   0.358
29026W        W71037  24.489   2.294  11.512
29027W        W71038  18.759  19.034   2.822
29028W        W71039   2.469   1.374   2.128
29029W        W71040   5.759  11.194   9.492
29030W        W71041  14.889   7.244   2.782
29031W        W71042   4.559  17.354   8.172
29032W        W71043   4.429  11.694   2.612
29033W        W71044  10.159   8.274   9.332
29034W        W71045  25.509  11.124   7.592
29035W        W71046  25.179  12.084   2.662
29036W        W71047  23.589  14.304   1.678
29037W        W71048   5.399  12.234   3.472
29038W        W71049  17.909  13.404   1.878
29039W        W71050  12.539   8.854   0.638
29040W        W71051  10.739   5.624   2.782
29041W        W71052  10.229   4.164  14.502
29042W        W71053  11.949   5.664   0.618
29043W        W71054   8.529  11.364   1.138
29044W        W71055  10.839  10.484   2.328
29045W        W71056  12.809  11.214   4.042
29046W        W71057   6.679  11.734   1.678
29047W        W71058   0.769   5.314  10.162
29048W        W71059   9.949  21.761   8.872
29049W        W71060   8.379   5.644   9.762
29050W        W71061  23.509   8.284  10.852
29051W        W71062   3.869   1.824   2.532
29052W        W71063  15.049  22.281  10.212
29053W        W71064   8.429  24.251  10.792
29054W        W71065   4.909  18.174   8.022
29055W        W71066  13.579  11.414  13.842
29056W        W71067   3.219  11.794   3.072
29057W        W71068   2.039  18.864   1.248
29058W        W71069   8.189  16.074   9.082
29059W        W71070  12.329   6.984   9.302
29060W        W71071   0.189  11.354   2.018
29061W        W71072  24.379   0.364  12.402
29062W        W71073   8.819   8.544   9.012
29063W        W71074  20.039   6.594   0.308
29064W        W71075  12.729   8.814   0.188
29065W        W71076  19.469   8.384  11.152
29066W        W71077  19.409  18.304   9.492
29067W        W71078   1.879  16.774  10.302
29068W        W71079  19.809   0.684   0.788
29069W        W71080   5.679  19.004   8.662
29070W        W71081   7.129   4.714  15.522
29071W        W71082  10.289  19.514   9.172
29072W        W71083   5.619  25.581  10.962
29073W        W71084  13.199  16.564  10.442
29074W        W71085  24.919   2.394   0.418
29075W        W71086   1.479   7.224   9.032
29076W        W71087   9.179   9.224  15.742
29077W        W71088  17.199   5.664   1.028
29078W        W71089  22.089  24.331  10.862
29079W        W71090  20.789  19.854   2.692
29080W        W71091   5.199  19.844  11.052
29081W        W71092  23.279  21.104  10.682
29082W        W71093  22.779   6.024  11.072
29083W        W71094  18.269  20.164   8.182
29084W        W71095  24.719  12.184   2.522
29085W        W71096  19.569  19.644  11.422
29086W        W71097  19.769  20.564  10.512
29087W        W71098   0.839  14.234  11.502
29088W        W71099  22.309  13.624   9.072
29089W        W71100   5.149  15.824   0.238
29090W        W71101  23.299   2.584   2.008
29091W        W71102  10.649   8.754   9.442
29092W        W71103  12.679   4.234  15.702
29093W        W71104  12.489  11.384   5.552
29094W        W71105  20.379   5.594   8.442
29095W        W71106  21.549  10.744   2.932
29096W        W71107   8.189   0.494  10.712
29097W        W71108  22.519   6.024   7.572
29098W        W71109  25.509   7.604   8.702
29099W        W71110  15.379  22.681  12.372
29100W        W71111  20.739   1.484   0.088
29101W        W71112  14.789  12.254  10.002
29102W        W71113  12.679  11.874   2.762
29103W        W71114   9.889   7.554   8.442
29104W        W71115  20.419  22.871  10.642
29105W        W71116  18.919   7.814  10.562
29106W        W71117  14.249   4.404   8.572
29107W        W71118  11.929  10.304   0.208
29108W        W71119  18.129   0.814   9.262
29109W        W71120  18.829   5.274   3.482
29110W        W71121   4.219   2.574   2.722
29111W        W71122  18.419  24.811   1.868
29112W        W71123   7.769  10.284   7.362
29113W        W71124  23.459   4.984   8.862
29114W        W71125  11.579   4.864   2.662
29115W        W71126  11.999  24.191   4.212
29116W        W71127  15.899   1.494   2.732
29117W        W71128   9.159  10.164   2.812
29118W        W71129  14.989  23.491  11.722
29119W        W71130   3.679  17.094   1.748
29120W        W71131   2.439  18.184   7.742
29121W        W71132   9.169  12.354   3.322
29122W        W71133   6.819   3.124  15.792
29123W        W71134   6.679  14.554   7.652
29124W        W71135  14.429   7.294   0.258
29125W        W71136  19.129  25.521   0.338
29126W        W71137  20.329  11.044   0.948
29127W        W71138   3.819  10.054   8.152
29128W        W71139  11.479  25.421   2.822
29129W        W71140  16.289  14.454   8.762
29130W        W71141   4.839  11.364   6.912
29131W        W71142   2.459   0.094   8.522
29132W        W71143   1.429  11.854   3.302
29133W        W71144  11.329   9.724  14.942
29134W        W71145  15.589  11.164  15.392
29135W        W71146  24.019   7.224   8.232
29136W        W71147  18.759  21.681  15.222
29137W        W71148   1.649  17.644   3.042
29138W        W71149  23.269  12.314   2.532
29139W        W71150   1.819  22.551   1.218
29140W        W71151  23.169  16.614   9.752
29141W        W71152  10.219  20.974   9.982
29142W        W71153  17.259  19.394   2.782
29143W        W71154  10.089  22.461   0.558
29144W        W71155  18.709  17.874  11.102
29145W        W71156  18.739   1.394   8.882
29146W        W71157   7.559  23.271  10.412
29147W        W71158  16.939  11.374  14.252
29148W        W71159  11.999   4.394   9.482
29149W        W71160  11.279   6.074  10.132
29150W        W71161  24.449   1.414   7.152
29151W        W71162  24.569  11.924   8.092
29152W        W71163  12.579  21.731   3.072
29153W        W71164   6.049  14.704   4.172
29154W        W71165   6.659   6.794   0.518
29155W        W71166   6.999  18.714  15.122
29156W        W71167  25.269  24.641   0.718
29157W        W71168  20.459  16.824   0.878
29158W        W71169  20.699  14.244  10.552
29159W        W71170  12.999  11.594   2.098
29160W        W71171   5.529  16.404   3.862
29161W        W71172  19.629  22.491  11.812
29162W        W71173  12.409  22.841   9.512
29163W        W71174   3.399  21.421   7.782
29164W        W71175  15.039   9.294  13.972
29165W        W71176   4.649  23.751   1.788
29166W        W71177   6.169  17.894   2.922
29167W        W71178  16.839  18.574   8.982
29168W        W71179  24.409  14.394   9.892
29169W        W71180   8.349  20.094   1.538
29170W        W71181   2.059  18.004   0.648
29171W        W71182   6.149   9.884   1.658
29172W        W71183   2.879   6.754   1.438
29173W        W71184  23.659  11.644   0.808
29174W        W71185  12.039  15.914   3.192
29175W        W71186   7.719   1.544   1.408
29176W        W71187  16.649   6.094   2.902
29177W        W71188  25.529   5.314   7.662
29178W        W71189  11.129  21.364   4.842
29179W        W71190  14.489  21.224   3.482
29180W        W71191   7.439  13.964   7.862
29181W        W71192   6.899  11.844   9.282
29182W        W71193  13.129  13.894   0.998
29183W        W71194   2.179   7.274   1.728
29184W        W71195  13.519  17.794   8.732
29185W        W71196   8.299  12.664   0.048
29186W        W71197  19.669   8.464   9.162
29187W        W71198   6.789  23.881  10.202
29188W        W71199  24.019  14.214  11.672
29189W        W71200  10.059  18.894   1.968
29190W        W71201  11.149  11.974  10.352
29191W        W71202  15.189   1.454   1.608
29192W        W71203  13.799  13.474   5.242
29193W        W71204  20.059   6.544  15.222
29194W        W71205  23.109  25.481   9.332
29195W        W71206  21.159  10.874   7.342
29196W        W71207  18.529   2.694   1.248
29197W        W71208   3.359  22.371   8.912
29198W        W71209  13.869   6.354   1.438
29199W        W71210  14.589  10.404   9.222
29200W        W71211  18.229   0.994  11.642
29201W        W71212   1.909   3.034   1.678
29202W        W71213  12.979  17.804   4.632
29203W        W71214  16.579  16.724   2.008
29204W        W71215  23.939  16.394  10.392
29205W        W71216   7.579  24.531   3.572
29206W        W71217  24.209   1.304   0.738
29207W        W71218   1.879   9.854   9.872
29208W        W71219  12.339   9.794   9.162
29209W        W71220  13.629  21.941   4.062
29210W        W71221  21.739   6.624   8.992
29211W        W71222   8.629   8.364  15.812
29212W        W71223  13.949   7.064   3.752
29213W        W71224  17.519  16.274  11.492
29214W        W71225  13.609   5.034  14.862
29215W        W71226   2.029   0.504   7.652
29216W        W71227   4.999   0.174   2.468
29217W        W71228   2.049  16.574  10.782
29218W        W71229  15.879   7.474   0.458
29219W        W71230  14.389  16.034  10.772
29220W        W71231   7.609  24.991  10.702
29221W        W71232  20.209   5.064  10.402
29222W        W71233  18.689   4.384   8.152
29223W        W71234   9.639   7.104   1.178
29224W        W71235  21.619  20.484   1.238
29225W        W71236  18.499   5.604   1.398
29226W        W71237  19.519  18.104  11.782
29227W        W71238   3.409  20.954   3.612
29228W        W71239   7.639   2.644   1.998
29229W        W71240   3.139   6.664   2.542
29230W        W71241  16.069   7.654   3.592
29231W        W71242   2.789  13.624   2.712
29232W        W71243  12.009  14.024   3.562
29233W        W71244   7.939  11.264   8.472
29234W        W71245   4.129   2.164  10.782
29235W        W71246   5.819   6.074  10.572
29236W        W71247   1.769  21.621   3.632
29237W        W71248  16.949  16.674   8.342
29238W        W71249  10.069  16.154   4.902
29239W        W71250  22.929  23.551   2.338
29240W        W71251  15.869  20.314   1.918
29241W        W71252  22.189  23.131   2.098
29242W        W71253   4.779  22.131  11.342
29243W        W71254   4.309   1.514  15.572
29244W        W71255  18.499  16.334   7.722
29245W        W71256  10.969   2.784   1.948
29246W        W71257   6.919  25.351   9.442
29247W        W71258   9.299  20.504   0.678
29248W        W71259  15.039  20.274   9.992
29249W        W71260  19.519  12.764   0.268
29250W        W71261  18.779   0.494  10.982
29251W        W71262  14.959  17.524  11.532
29252W        W71263  18.869  14.294   7.442
29253W        W71264   7.089   3.204  10.212
29254W        W71265  20.939   7.854   8.432
29255W        W71266  23.079   2.204  10.432
29256W        W71267  22.069  22.881   1.638
29257W        W71268   2.159  18.474   0.468
29258W        W71269   2.219  11.664  10.302
29259W        W71270  17.379  14.234   3.662
29260W        W71271  20.539  24.191   9.072
29261W        W71272   2.949  15.074  10.382
29262W        W71273  18.379  24.731  10.542
29263W        W71274   0.379  16.784   4.132
29264W        W71275  21.989  19.264   1.108
29265W        W71276  19.939  19.114   0.518
29266W        W71277  20.129  21.224   2.258
29267W        W71278  25.389  18.534   8.132
29268W        W71279  10.319   2.704   9.152
29269W        W71280   4.139   5.414   9.362
29270W        W71281  13.969   5.784   1.558
29271W        W71282  22.949  25.131   9.772
29272W        W71283  24.439   8.874   7.592
29273W        W71284  17.199   5.864   0.188
29274W        W71285  11.149   2.404   8.892
29275W        W71286   3.509  11.064   8.932
29276W        W71287  10.469   2.184  15.282
29277W        W71288  24.399  21.821   0.968
29278W        W71289  10.839  15.854   9.922
29279W        W71290   5.029   3.694   8.752
29280W        W71291  10.359   1.524  10.102
29281W        W71292   6.459  15.384  10.142
29282W        W71293   1.369  18.944   8.842
29283W        W71294  11.939  11.554   2.298
29284W        W71295   7.969  15.364   2.078
29285W        W71296  24.989  20.324   0.098
29286W        W71297   3.349   0.474   8.032
29287W        W71298   1.479   9.704   8.982
29288W        W71299  17.979  13.834  15.472
29289W        W71300  22.639  21.911  15.082
29290W        W71301  13.639   9.384   4.652
29291W        W71302  23.579   8.934   0.738
29292W        W71303   1.649  24.461   0.138
29293W        W71304   6.339  12.124   0.228
29294W        W71305  17.979   3.964   0.008
29295W        W71306  15.689  10.204   2.178
29296W        W71307  17.539  11.284  15.082
29297W        W71308   6.029  10.834   2.602
29298W        W71309   8.999   0.734   2.378
29299W        W71310   4.649  25.461   8.402
29300W        W71311   5.699  15.844   3.762
29301W        W71312  19.229   6.514  15.812
29302W        W71313   4.799   7.184   0.578
29303W        W71314  13.769  17.694   2.268
29304W        W71315  12.109  10.824   4.702
29305W        W71316  15.159  24.601   4.012
29306W        W71317   9.279  18.584  14.722
29307W        W71318   4.269  17.834  15.472
29308W        W71319  10.419   4.574   0.208
29309W        W71320  22.539   1.304   3.152
29310W        W71321   6.719  14.024  10.092
29311W        W71322  21.889   9.794   7.082
29312W        W71323   7.979  12.844  11.082
29313W        W71324  22.429  23.311   2.532
29314W        W71325   4.299  22.181  10.392
29315W        W71326  17.469   6.324  15.682
29316W        W71327  16.309   0.594   2.078
29317W        W71328  17.909  20.654   2.622
29318W        W71329   2.289   9.574  11.582
29319W        W71330   2.439  21.601   1.078
29320W        W71331   2.289  11.374   2.358
29321W        W71332  13.659  21.354  10.412
29322W        W71333   3.089  25.401   9.752
29323W        W71334  13.579  20.804  10.822
29324W        W71335   2.199   6.904  10.762
29325W        W71336  13.179  17.044   3.832
29326W        W71337   4.169  21.481   2.742
29327W        W71338  24.279  10.084  15.242
29328W        W71339   6.009   7.744   8.952
29329W        W71340  25.549  11.794   9.122
29330W        W71341   5.779  11.314   2.662
29331W        W71342  12.599  11.474   4.392
29332W        W71343   7.009  10.204   3.442
29333W        W71344  16.079   5.704  15.342
29334W        W71345  17.079  20.894   9.322
29335W        W71346  25.199   0.154   1.438
29336W        W71347   1.169  20.084  10.852
29337W        W71348   7.029  14.594   8.952
29338W        W71349   0.439   9.314  11.542
29339W        W71350   7.479  11.944   1.528
29340W        W71351  21.579  16.394   8.792
29341W        W71352  19.349   7.534   0.818
29342W        W71353  18.069  20.354   0.088
29343W        W71354   3.529  20.504   3.982
29344W        W71355  19.809  13.744   1.268
29345W        W71356  11.189   3.914   0.578
29346W        W71357   6.279   9.594   9.712
29347W        W71358  16.569   7.494   8.702
29348W        W71359   1.369  19.874   8.742
29349W        W71360  15.459  12.744   0.268
29350W        W71361  25.159   1.434  10.142
29351W        W71362  14.629  23.771   2.542
29352W        W71363  20.129   7.284   1.848
29353W        W71364  11.819  13.434   4.172
29354W        W71365  10.069  23.651  15.252
29355W        W71366  23.869   5.304  15.712
29356W        W71367  13.089  23.741   2.478
29357W        W71368   2.789  15.054   0.898
29358W        W71369   2.919  10.114  10.972
29359W        W71370   4.389   0.114   2.478
29360W        W71371  13.469   9.034   9.682
29361W        W71372  12.779  18.944   0.688
29362W        W71373  14.329  19.714   4.552
29363W        W71374   9.039  11.464   0.478
29364W        W71375  20.409   2.054   0.248
29365W        W71376  24.099   8.214   8.382
29366W        W71377  22.119  11.784   2.128
29367W        W71378   3.259  11.094  10.602
29368W        W71379  15.049  17.394  10.632
29369W        W71380   6.569  12.204  15.672
29370W        W71381   2.269   9.834  11.082
29371W        W71382   7.669  19.854  10.592
29372W        W71383   6.389  20.894  15.712
29373W        W71384  12.409   5.664  10.222
29374W        W71385  16.569  23.911   3.352
29375W        W71386   2.459   8.574  10.652
29376W        W71387  15.619   8.584   2.208
29377W        W71388  13.449   0.874  10.642
29378W        W71389   5.279  14.644   8.092
29379W        W71390  24.629  24.451   4.162
29380W        W71391   7.619  19.024   3.072
29381W        W71392  11.039  10.484   2.872
29382W        W71393   1.409  21.094   1.248
29383W        W71394   7.049   8.744  14.812
29384W        W71395  10.079  23.691   1.388
29385W        W71396  13.409  19.684  10.932
29386W        W71397   0.959  13.314  15.592
29387W        W71398  21.419  19.484   9.572
29388W        W71399  10.629   3.274   9.872
29389W        W71400   9.859  24.101   9.402
29390W        W71401   3.379  16.794   0.408
29391W        W71402   3.749   2.604   3.012
29392W        W71403  18.049  24.741   8.562
29393W        W71404   5.379   9.204  11.812
29394W        W71405  19.949  11.354   9.232
29395W        W71406   7.589  22.391   9.162
29396W        W71407  23.869  11.614  11.162
29397W        W71408  13.079   5.314   2.732
29398W        W71409   7.099   6.174   2.642
29399W        W71410   0.109  10.824  11.052
29400W        W71411   7.289  10.944   7.992
29401W        W71412  16.529  23.971   7.892
29402W        W71413  21.669  21.861   3.262
29403W        W71414   5.249  23.081  10.922
29404W        W71415   7.899  23.871   9.452
29405W        W71416  19.899  16.504   1.588
29406W        W71417   2.399  17.004   2.418
29407W        W71418  23.549  18.224   3.382
29408W        W71419   9.599   6.714   7.402
29409W        W71420   3.739   4.854  10.282
29410W        W71421   1.619  16.094   8.122
29411W        W71422   0.439   3.914   0.508
29412W        W71423  24.819  10.714   1.348
29413W        W71424  14.189   4.624   9.652
29414W        W71425   2.239   5.824   0.238
29415W        W71426   5.029  12.304  14.492
29416W        W71427  14.219  24.301  10.982
29417W        W71428  14.429  21.381   2.992
29418W        W71429  12.509  24.411   2.692
29419W        W71430   9.539  19.514   0.808
29420W        W71431  24.059  14.174   1.068
29421W        W71432  10.319  17.804   2.512
29422W        W71433  10.899   4.014   4.482
29423W        W71434  16.159  17.574   3.582
29424W        W71435   3.079  20.754  15.532
29425W        W71436  13.489  14.254   1.688
29426W        W71437  21.649   6.774   1.288
29427W        W71438   6.739  11.344   9.222
29428W        W71439   4.689   4.294  11.572
29429W        W71440   4.519  16.844   9.052
29430W        W71441  17.339  18.244  15.492
29431W        W71442  20.839  16.324  12.102
29432W        W71443  10.189  15.564   3.482
29433W        W71444   0.819  23.341   7.972
29434W        W71445   0.669  22.641   8.722
29435W        W71446  18.759  13.004   1.998
29436W        W71447  10.989  17.164  15.652
29437W        W71448  23.199  13.904   0.578
29438W        W71449  22.149   0.294   2.408
29439W        W71450   6.179  17.044   3.462
29440W        W71451  13.069  24.901  15.642
29441W        W71452  18.419  11.424  15.212
29442W        W71453  15.139   2.994  15.402
29443W        W71454   2.869  12.694   1.928
29444W        W71455  22.149  11.784   9.672
29445W        W71456   8.399   5.034   2.348
29446W        W71457  12.229   0.294   3.782
29447W        W71458  14.449  25.011   9.272
29448W        W71459   4.139  20.744   9.882
29449W        W71460   4.399  20.034   3.742
29450W        W71461  13.259   9.014   4.382
29451W        W71462  19.809  12.274   2.388
29452W        W71463   6.629  23.781   2.972
29453W        W71464  15.079   6.384   9.052
29454W        W71465  16.459  21.224   3.152
29455W        W71466  21.189  23.481  10.132
29456W        W71467  12.199   6.744  10.912
29457W        W71468  18.589  17.104   9.972
29458W        W71469  23.819  19.694   1.108
29459W        W71470   6.159  24.511   8.102
29460W        W71471  23.949  22.131   2.348
29461W        W71472  19.459  14.044   2.512
29462W        W71473  15.379  24.461   1.398
29463W        W71474  20.849  12.724  15.212
29464W        W71475  25.329  21.144   9.962
29465W        W71476  10.529  10.274   9.462
29466W        W71477   4.929   4.054   0.378
29467W        W71478   9.759  12.584   0.108
29468W        W71479  17.619   7.514   1.058
29469W        W71480  19.449  16.454   2.552
29470W        W71481   5.219   6.814  15.002
29471W        W71482  18.259  16.274   1.338
29472W        W71483  11.089   6.304   2.038
29473W        W71484   7.589  15.724  10.402
29474W        W71485  12.309  14.974   4.672
29475W        W71486  24.149  17.974   2.592
29476W        W71487   3.219  11.804   2.218
29477W        W71488  17.589  25.281   8.432
29478W        W71489   2.449  10.804   9.132
29479W        W71490  23.089   9.864  15.812
29480W        W71491   8.329   1.754   2.912
29481W        W71492   5.819   0.044   7.612
29482W        W71493  14.859  20.524   1.858
29483W        W71494  10.649  13.864   9.982
29484W        W71495   5.059   6.514   1.968
29485W        W71496   1.699   8.864   2.018
29486W        W71497  17.239  22.251   1.188
29487W        W71498   5.039  14.234   8.172
29488W        W71499  19.209  20.974   2.652
29489W        W71500   2.859   0.954  15.712
29490W        W71501  10.039  18.624  15.402
29491W        W71502  21.989   9.994   9.722
29492W        W71503   9.029  15.384  10.552
29493W        W71504   6.419   6.254   1.448
29494W        W71505  10.559  14.754   1.748
29495W        W71506   0.729  19.814  10.872
29496W        W71507  11.009  20.494   3.792
29497W        W71508   0.729  16.254   0.938
29498W        W71509   4.169  14.034   2.068
29499W        W71510  10.779  16.514   0.628
29500W        W71511  11.979  23.721   1.388
29501W        W71512  21.069   1.444   9.812
29502W        W71513  25.029  10.014   2.208
29503W        W71514  24.179  10.794   2.498
29504W        W71515  20.449   6.224   9.912
29505W        W71516   6.349  11.554   8.992
29506W        W71517  23.089  12.404   8.932
29507W        W71518  24.939   3.094  15.842
29508W        W71519  12.339   5.794   8.672
29509W        W71520   9.899  18.544   0.508
29510W        W71521   4.979   2.874   9.532
29511W        W71522  24.029  13.264   8.312
29512W        W71523   2.469  18.534   8.122
29513W        W71524  16.669   7.944  10.532
29514W        W71525   1.979  23.651   0.188
29515W        W71526   8.039  11.144   1.138
29516W        W71527  15.799  13.924   1.538
29517W        W71528  25.489   7.134   0.298
29518W        W71529   1.549   3.344   7.772
29519W        W71530  19.689  15.684   7.922
29520W        W71531  16.969   4.814  10.482
29521W        W71532   7.359  19.824  15.792
29522W        W71533  12.399   5.904   4.512
29523W        W71534  19.059  20.134   2.168
29524W        W71535  24.009  12.454  10.622
29525W        W71536   2.409  21.801  11.762
29526W        W71537   3.099  15.624   9.592
29527W        W71538  10.969   1.504  15.742
29528W        W71539   8.509   2.584  15.582
29529W        W71540  23.909   6.234  11.712
29530W        W71541  15.389  23.521  10.882
29531W        W71542  22.359  16.894  10.032
29532W        W71543   3.299  24.091   2.188
29533W        W71544  11.399  21.521   3.262
29534W        W71545  14.949   8.724   1.468
29535W        W71546  17.689  25.111   9.452
29536W        W71547   5.169  25.351   1.228
29537W        W71548   4.509  12.864   3.622
29538W        W71549   7.979   8.304   3.192
29539W        W71550  18.769  18.704   0.128
29540W        W71551  20.979   5.574   3.582
29541W        W71552   1.069  24.341  10.972
29542W        W71553   1.419   7.304   6.862
29543W        W71554   6.099   1.414   8.762
29544W        W71555   5.819   9.474   0.188
29545W        W71556   4.269  14.524   2.058
29546W        W71557   6.169  13.694  15.542
29547W        W71558   7.549   0.174   8.692
29548W        W71559  21.469  24.101   8.972
29549W        W71560  13.849  15.954   3.452
29550W        W71561  14.529   7.704  15.482
29551W        W71562   0.129   3.074  10.912
29552W        W71563   2.409   4.514   7.672
29553W        W71564  12.289  14.284  15.332
29554W        W71565   5.469   9.764  10.922
29555W        W71566  23.599   6.414   9.872
29556W        W71567   3.539  20.804   3.062
29557W        W71568  17.169   9.454   8.312
29558W        W71569   2.359  11.854  12.042
29559W        W71570  25.079  25.571  11.122
29560W        W71571  17.919   6.094   1.848
29561W        W71572  15.749  20.474  11.142
29562W        W71573  11.359  13.294   4.972
29563W        W71574  21.839  22.261  10.592
29564W        W71575   4.589   2.214   2.832
29565W        W71576   8.759  24.731  11.562
29566W        W71577  20.669  13.544   9.222
29567W        W71578  15.229  12.544   0.668
29568W        W71579  15.729   1.504   1.278
29569W        W71580  24.789   4.064   8.472
29570W        W71581  19.209  24.271  10.622
29571W        W71582   9.119  10.124   3.352
29572W        W71583   0.069  13.974  10.372
29573W        W71584  19.179   9.604   8.992
29574W        W71585  10.869  23.501   1.968
29575W        W71586  14.569  10.974   0.428
29576W        W71587   3.379  15.414  10.972
29577W        W71588  12.799  25.151   9.692
29578W        W71589   0.629  17.644   1.468
29579W        W71590   9.499  12.574   9.172
29580W        W71591  16.699  16.184   0.238
29581W        W71592  23.339   3.964  10.672
29582W        W71593  12.009   5.074   0.878
29583W        W71594   9.719  25.031   9.102
29584W        W71595   1.319   0.384   8.202
29585W        W71596   2.659   9.324  11.752
29586W        W71597   9.119   4.734  14.052
29587W        W71598  17.379   4.944   8.742
29588W        W71599  15.199  19.284  15.472
29589W        W71600  15.619   8.134   9.692
29590W        W71601  24.939  21.014   3.552
29591W        W71602  24.019  20.214  15.402
29592W        W71603  14.179   6.464  11.232
29593W        W71604  25.559  22.291   8.622
29594W        W71605   2.009   4.954   9.172
29595W        W71606  16.669  10.524   4.472
29596W        W71607  25.139  18.014  11.952
29597W        W71608  17.819  19.534  11.612
29598W        W71609  18.089  21.154   8.222
29599W        W71610  13.989  21.024   3.742
29600W        W71611  15.119  11.534   4.002
29601W        W71612  15.859  18.234   2.792
29602W        W71613  18.699  19.674  10.322
29603W        W71614   3.979  22.911   9.332
29604W        W71615  20.159  16.964  10.462
29605W        W71616  24.749  17.434   2.702
29606W        W71617  12.699  15.974   9.982
29607W        W71618  24.209  23.041   3.932
29608W        W71619  22.149   3.404   6.962
29609W        W71620  19.759   1.014   3.932
29610W        W71621  24.029  13.444   9.232
29611W        W71622  12.139  19.194   8.922
29612W        W71623  21.099  19.344   2.328
29613W        W71624  19.639  24.541   8.572
29614W        W71625  12.279  16.414   3.702
29615W        W71626  25.489   9.834   2.468
29616W        W71627   5.439   6.264   2.732
29617W        W71628  20.949  11.464   8.602
29618W        W71629  12.579   8.764  14.242
29619W        W71630   6.759  18.674   2.488
29620W        W71631  12.789   2.054   2.522
29621W        W71632  17.759  25.551   9.732
29622W        W71633  12.129   5.004  15.342
29623W        W71634  11.749  24.241   2.592
29624W        W71635  11.329  22.601   0.848
29625W        W71636  13.169   7.544  14.652
29626W        W71637  14.339  17.244   0.878
29627W        W71638  15.719   3.444   1.578
29628W        W71639  21.369  15.294  11.592
29629W        W71640   5.089  13.094   1.448
29630W        W71641  22.649   5.624   2.782
29631W        W71642   9.039  24.771   1.628
29632W        W71643   1.639  24.351   7.812
29633W        W71644  10.889   8.734   0.388
29634W        W71645  18.349  21.891   8.242
29635W        W71646  21.229   9.734   1.328
29636W        W71647   1.819  11.524   3.312
29637W        W71648  25.039   6.154  10.622
29638W        W71649   8.719   3.414   9.722
29639W        W71650  20.049  13.024   8.622
29640W        W71651  18.569   3.754  10.322
29641W        W71652  24.239  17.634   3.002
29642W        W71653   3.979   2.264   2.378
29643W        W71654   8.599  20.954   1.028
29644W        W71655   1.369   5.504   8.332
29645W        W71656  12.939   8.504   1.978
29646W        W71657   1.519   1.564   2.662
29647W        W71658  16.219  22.631   9.732
29648W        W71659  21.689  22.041   0.948
29649W        W71660  17.269   4.854   3.642
29650W        W71661   4.689  19.154   8.382
29651W        W71662  18.579   4.694   1.678
29652W        W71663  24.629  20.874   1.058
29653W        W71664  13.589   0.464  15.222
29654W        W71665   9.869   9.634   2.228
29655W        W71666  16.179   5.694  10.272
29656W        W71667  18.979  25.421   9.252
29657W        W71668   3.379  23.851   9.832
29658W        W71669  13.609   7.674   0.588
29659W        W71670  10.349   2.334   8.162
29660W        W71671   5.389  13.874   1.968
29661W        W71672  20.569   9.034  10.822
29662W        W71673   5.999  17.124   9.972
29663W        W71674  16.859  21.811   3.722
29664W        W71675   0.299   1.344   0.038
29665W        W71676  13.299   6.694   0.408
29666W        W71677  20.739   9.154   3.412
29667W        W71678  15.179  11.564  15.312
29668W        W71679  24.709  20.944   2.742
29669W        W71680  24.369  16.814  11.292
29670W        W71681   1.629   1.724   2.128
29671W        W71682  20.089   4.084   0.828
29672W        W71683  17.119  10.324   0.628
29673W        W71684   8.579   8.784  10.212
29674W        W71685  12.349   7.784   0.858
29675W        W71686   8.629   0.014   9.572
29676W        W71687  12.709  12.294   5.712
29677W        W71688  16.589   6.654   7.942
29678W        W71689   9.649   2.044   0.048
29679W        W71690  13.939  22.011   8.922
29680W        W71691   8.929  10.584   2.812
29681W        W71692   0.579  22.461   4.002
29682W        W71693  21.209   0.324  10.882
29683W        W71694  16.859  10.694  10.252
29684W        W71695  24.179  12.524   3.222
29685W        W71696  16.819  13.504   9.972
29686W        W71697  24.149  21.371   1.638
29687W        W71698  16.719   1.224   3.782
29688W        W71699  13.509  18.474  15.452
29689W        W71700   4.429   6.964   8.822
29690W        W71701  18.239  15.794   0.338
29691W        W71702  17.029  18.464   7.612
29692W        W71703   0.879  12.524   7.542
29693W        W71704   2.569   3.494   9.992
29694W        W71705  11.669  16.964  15.242
29695W        W71706   3.609   9.994  11.262
29696W        W71707  10.619  14.734   2.862
29697W        W71708  18.629   8.134   7.862
29698W        W71709  25.169   5.504   3.062
29699W        W71710   9.949   9.554  14.892
29700W        W71711  16.039   3.624   1.138
29701W        W71712  13.529   4.384  10.372
29702W        W71713  12.389   8.704  14.762
29703W        W71714   3.359  17.074   3.272
29704W        W71715   4.249   2.234   4.002
29705W        W71716  14.309  25.361   2.952
29706W        W71717   2.899  19.364   1.648
29707W        W71718  20.199  13.174  15.162
29708W        W71719  24.349  14.964  11.022
29709W        W71720   2.479   1.404   2.912
29710W        W71721  13.049  19.234   2.088
29711W        W71722  15.569   8.124  15.542
29712W        W71723  19.879  14.804  11.272
29713W        W71724  21.509   0.684   2.902
29714W        W71725  14.289  22.211  11.432
29715W        W71726  10.799   6.654  14.282
29716W        W71727   1.339  25.411  15.342
29717W        W71728   0.799  12.904   2.912
29718W        W71729   0.899  15.794   1.948
29719W        W71730  22.159  10.714   8.092
29720W        W71731  17.059  18.714  15.492
29721W        W71732  21.299   8.034   1.438
29722W        W71733  22.499  12.794   9.982
29723W        W71734  18.399  14.184   2.992
29724W        W71735   6.749  17.064   3.512
29725W        W71736  14.299   5.304   2.802
29726W        W71737   7.069  25.551   2.148
29727W        W71738   7.689   8.834  10.072
29728W        W71739   9.199  16.304  14.832
29729W        W71740   7.449  20.494  15.392
29730W        W71741   2.409   1.364   8.162
29731W        W71742  14.689   9.864  14.912
29732W        W71743  15.389  20.624   2.932
29733W        W71744   3.769  17.834   3.562
29734W        W71745   7.139   2.414   2.388
29735W        W71746   1.629  17.114   2.088
29736W        W71747   7.409   4.814  10.162
29737W        W71748  24.959  15.854   3.662
29738W        W71749  10.279  13.604   0.258
29739W        W71750  25.519  13.374   1.888
29740W        W71751  17.329  24.281  15.592
29741W        W71752  21.229  18.464  12.632
29742W        W71753  16.229   6.284   3.512
29743W        W71754  15.039  15.574   1.498
29744W        W71755   2.319  23.111   3.462
29745W        W71756  19.229  23.371   2.692
29746W        W71757  21.219  11.004   3.162
29747W        W71758  10.629  16.994   0.758
29748W        W71759   9.239  22.401   3.172
29749W        W71760  11.309  24.011   1.678
29750W        W71761   5.399   0.154   7.892
29751W        W71762  24.929  19.354  11.672
29752W        W71763  21.959  12.154   1.858
29753W        W71764   4.109   3.854   0.918
29754W        W71765   6.309  22.981  12.002
29755W        W71766  11.449  14.994   3.152
29756W        W71767  14.549  23.441   9.352
29757W        W71768  23.869  20.174  12.192
29758W        W71769   4.969  21.154  10.432
29759W        W71770  14.879  13.154   0.378
29760W        W71771  21.879   0.524   4.272
29761W        W71772   8.069  18.544   4.912
29762W        W71773   4.539  25.081   0.458
29763W        W71774   3.299  20.454   3.552
29764W        W71775   4.059   8.754   8.312
29765W        W71776  12.349  22.391  10.922
29766W        W71777   3.579   2.214   8.002
29767W        W71778  19.369  22.191  12.302
29768W        W71779  25.419  22.571   9.682
29769W        W71780   7.389   3.334  11.242
29770W        W71781  17.959  20.244   1.868
29771W        W71782  23.729  19.854   2.238
29772W        W71783   3.389  16.544   8.532
29773W        W71784   9.619  17.244   2.582
29774W        W71785  13.219  19.914   1.358
29775W        W71786   7.939   2.974   9.382
29776W        W71787   5.159   9.504  11.372
29777W        W71788   9.389   4.924   8.902
29778W        W71789   9.059  12.544   0.588
29779W        W71790  23.329   1.514   8.462
29780W        W71791  17.439  24.331  10.662
29781W        W71792   6.399  10.054   2.118
29782W        W71793  17.409   6.644   4.182
29783W        W71794  25.039   9.454  10.722
29784W        W71795  11.209  15.704   3.542
29785W        W71796  12.329   4.174   8.262
29786W        W71797  13.379   3.904   3.332
29787W        W71798  12.149  13.154   2.478
29788W        W71799  20.819  22.171   8.892
29789W        W71800   6.259   6.704   2.772
29790W        W71801  24.279  12.334   8.282
29791W        W71802  14.779  25.041   0.838
29792W        W71803  16.729   6.124   8.242
29793W        W71804  10.349   9.034   0.938
29794W        W71805   3.039  16.964   9.792
29795W        W71806   1.069  12.434   2.762
29796W        W71807  17.759  16.964   0.578
29797W        W71808  20.079  22.831   9.842
29798W        W71809  25.379   7.714   9.182
29799W        W71810  25.239  17.484  11.932
29800W        W71811  17.319  24.771   1.878
29801W        W71812  22.989   4.424   3.302
29802W        W71813  10.709  21.971   3.922
29803W        W71814  24.269  18.894   2.912
29804W        W71815  21.849   0.654   8.282
29805W        W71816  16.069  24.001  11.972
29806W        W71817  20.379   7.244   9.102
29807W        W71818   9.799   9.594   3.022
29808W        W71819  18.989  13.404   9.212
29809W        W71820   8.739   1.394   2.992
29810W        W71821   2.269  19.904   2.682
29811W        W71822  10.429  10.684  10.302
29812W        W71823   5.499   5.754   2.722
29813W        W71824   4.989  19.464  10.762
29814W        W71825  22.489   8.754   1.568
29815W        W71826   7.709   9.144   2.862
29816W        W71827  14.929   1.294   2.048
29817W        W71828   2.669   7.974   8.622
29818W        W71829   4.999   8.944   7.442
29819W        W71830  15.229  16.704   4.342
29820W        W71831  19.129  21.521   0.478
29821W        W71832  19.849   0.514   1.248
29822W        W71833  24.969   8.894   8.462
29823W        W71834   4.499  11.654   7.652
29824W        W71835  14.919  25.341   3.602
29825W        W71836   9.689  21.481   9.662
29826W        W71837  19.899  15.644   9.952
29827W        W71838   9.749   3.534   1.678
29828W        W71839  16.899  21.034   8.592
29829W        W71840  11.129  16.924   0.628
29830W        W71841   0.449  24.591   8.842
29831W        W71842  23.119   5.464  10.762
29832W        W71843   6.789   0.134   3.402
29833W        W71844  18.729  14.464  11.732
29834W        W71845  13.269   7.994  15.182
29835W        W71846  19.759  22.341   0.708
29836W        W71847   2.089  16.384   1.938
29837W        W71848  25.199  25.011  10.492
29838W        W71849   6.739   4.444  15.222
29839W        W71850  20.799  11.994   8.442
29840W        W71851   6.629   3.854   7.532
29841W        W71852   4.489  22.221   0.648
29842W        W71853   4.119   5.054   2.632
29843W        W71854  18.529   2.294  10.342
29844W        W71855   5.979   9.224  15.142
29845W        W71856   0.279   5.964   0.088
29846W        W71857  16.649  23.241   9.412
29847W        W71858  23.469  15.644  10.962
29848W        W71859   0.179   1.414   3.212
29849W        W71860  15.279  19.134   1.538
29850W        W71861   7.249  16.714   2.328
29851W        W71862  21.069  20.344  12.402
29852W        W71863  22.549  21.401   2.582
29853W        W71864  15.639  19.094   8.212
29854W        W71865  14.269   3.774   4.332
29855W        W71866   7.619   6.624   3.332
29856W        W71867  17.469   6.214   8.482
29857W        W71868  19.449  16.194   7.112
29858W        W71869  18.759  23.301   2.842
29859W        W71870   0.089   3.394   2.632
29860W        W71871  18.349  23.871   8.782
29861W        W71872  20.819  17.724  10.802
29862W        W71873  21.499  12.854   1.638
29863W        W71874   4.449   2.654  15.772
29864W        W71875   5.879   3.084  15.222
29865W        W71876  18.399   6.604  10.502
29866W        W71877   1.989   5.984  11.292
29867W        W71878   5.889   7.054   9.972
29868W        W71879  16.219   2.364   3.292
29869W        W71880  22.369   1.644   3.752
29870W        W71881   2.669   8.364   7.972
29871W        W71882   2.199   8.884   7.272
29872W        W71883  24.569   0.974   0.848
29873W        W71884   0.219  17.384   8.032
29874W        W71885  12.989   3.844   4.362
29875W        W71886  25.529  21.711   2.992
29876W        W71887   7.789  21.004   3.852
29877W        W71888   2.729  14.464   8.462
29878W        W71889  21.159   4.514   0.118
29879W        W71890  24.099   1.384   2.118
29880W        W71891  14.129   2.744   2.782
29881W        W71892   8.399  11.204  10.522
29882W        W71893   5.979  20.134   1.188
29883W        W71894  14.189   4.044   3.772
29884W        W71895   9.139   5.544   2.108
29885W        W71896   6.399   0.984   2.972
29886W        W71897  11.759   9.834  15.462
29887W        W71898  15.979  22.691   8.802
29888W        W71899  19.119  23.041   8.492
29889W        W71900   8.969  24.081   2.488
29890W        W71901  18.319  21.104   3.052
29891W        W71902  21.399   9.494  10.352
29892W        W71903   1.179  15.944  10.252
29893W        W71904  10.069   6.054   3.332
29894W        W71905  21.309   7.274   3.522
29895W        W71906  20.969  11.314   2.712
29896W        W71907  13.699   8.084   1.588
29897W        W71908   3.929  25.421   3.362
29898W        W71909   5.709  25.471   8.682
29899W        W71910   0.569  21.381   1.728
29900W        W71911   3.719  21.941  11.332
29901W        W71912   2.519   7.414  15.752
29902W        W71913   9.089   2.144   2.358
29903W        W71914  10.749  15.844   9.162
29904W        W71915  16.789  21.661  11.072
29905W        W71916  21.319  17.144   7.542
29906W        W71917   4.619   8.234   8.082
29907W        W71918  20.179  24.121   1.388
29908W        W71919  17.309  15.124   0.618
29909W        W71920  24.199   5.434   0.708
29910W        W71921  15.669  19.434   2.178
29911W        W71922  21.619   7.714   2.348
29912W        W71923  23.449  25.221   0.448
29913W        W71924   5.239   5.714   8.722
29914W        W71925   0.829  24.551   9.952
29915W        W71926  22.589   3.644  10.612
29916W        W71927  13.039  22.001  10.052
29917W        W71928   2.919   8.014   7.212
29918W        W71929   7.539   2.284   0.928
29919W        W71930   9.089   8.204   3.232
29920W        W71931   0.539  14.534   0.278
29921W        W71932   3.339  17.254   2.792
29922W        W71933  25.099  11.844  15.532
29923W        W71934  15.139  10.334  15.612
29924W        W71935   8.989  12.144   4.142
29925W        W71936  19.519  10.404  15.332
29926W        W71937  20.209   1.524   0.258
29927W        W71938   4.899  11.384   7.832
29928W        W71939  22.709  19.634  15.602
29929W        W71940  14.319  25.531   0.108
29930W        W71941  21.649  15.124   8.402
29931W        W71942   0.829   6.644   0.268
29932W        W71943  19.119   9.734   8.512
29933W        W71944  24.839   3.304   7.802
29934W        W71945  19.489   1.774   7.832
29935W        W71946  20.569  19.034   1.448
29936W        W71947  12.889   2.894   8.902
29937W        W71948  14.549   8.584   2.562
29938W        W71949   9.529  20.324   3.282
29939W        W71950  12.539  11.384   2.722
29940W        W71951   3.029   3.024   9.202
29941W        W71952   5.699  19.764   4.252
29942W        W71953   6.619   2.154   2.932
29943W        W71954  21.399  18.624   8.552
29944W        W71955  10.469  10.594   3.702
29945W        W71956  20.989   5.254   0.878
29946W        W71957  18.729   4.944   8.512
29947W        W71958  20.879  17.194   0.258
29948W        W71959   1.909   9.744   9.302
29949W        W71960   8.319  24.591   9.992
29950W        W71961   7.269  22.831  10.662
29951W        W71962  10.829   6.414   9.812
29952W        W71963  19.809  23.041   2.238
29953W        W71964  13.859  20.614   9.822
29954W        W71965  13.099  22.101  10.522
29955W        W71966  19.869  11.544   7.792
29956W        W71967  16.689  21.831   0.238
29957W        W71968  18.769  10.074   8.362
29958W        W71969  12.309  15.294   2.572
29959W        W71970   7.239  24.151   8.702
29960W        W71971  23.099  14.134   2.882
29961W        W71972   7.709  18.944   8.112
29962W        W71973  19.959   5.384   2.498
29963W        W71974  17.679  19.454  11.142
29964W        W71975   9.379  13.454   4.282
29965W        W71976  24.179   1.474  10.522
29966W        W71977   7.439  10.304  14.332
29967W        W71978  23.619  12.854  10.832
29968W        W71979  19.659  24.141  11.202
29969W        W71980   1.799  16.534   6.912
29970W        W71981  15.249  21.881  11.682
29971W        W71982  21.859   3.474   7.792
29972W        W71983  16.649  11.404   1.948
29973W        W71984  10.799  11.964   3.822
29974W        W71985  22.129  15.854   9.072
29975W        W71986  22.399  20.954  10.442
29976W        W71987  21.149   3.694  11.682
29977W        W71988  17.189   2.694   8.662
29978W        W71989  16.269  24.511   1.548
29979W        W71990  13.639  13.074   0.718
29980W        W71991  10.129  11.354   2.098
29981W        W71992  17.289   8.854  10.282
29982W        W71993  16.229  20.434  15.132
29983W        W71994  12.469   2.224   4.812
29984W        W71995  24.529   9.484   3.292
29985W        W71996  20.569   9.064   9.642
29986W        W71997  19.349  18.534   7.232
29987W        W71998  14.119   3.234   1.318
29988W        W71999   6.639   2.754   2.038
29989W        W72000   8.819  14.484   1.308
29990W        W72001   7.889  25.021   0.878
29991W        W72002  10.029  10.424  15.292
29992W        W72003  24.759   0.454   0.058
29993W        W72004  12.919  21.581   4.002
29994W        W72005  18.729  16.784  11.872
29995W        W72006  14.559  18.534   4.972
29996W        W72007   6.329  12.124  10.862
29997W        W72008  16.299   5.274  15.422
29998W        W72009   6.649  18.704  10.352
29999W        W72010   1.199  14.534  15.182
30000W        W72011  19.969  13.314   8.212
30001W        W72012  15.289   3.534   8.532
30002W        W72013  18.609  10.184   2.842
30003W        W72014  24.329   6.804   0.798
30004W        W72015   0.659  10.344  11.242
30005W        W72016  17.169  16.474   2.852
30006W        W72017  22.349   0.814   0.438
30007W        W72018  15.069   7.374   1.688
30008W        W72019  25.169  14.134   9.632
30009W        W72020  13.219  16.984   2.298
30010W        W72021   5.309  19.104  10.502
30011W        W72022  23.849   5.164  10.132
30012W        W72023  23.729  13.354   9.652
30013W        W72024  18.269  14.114   4.312
30014W        W72025   8.549  16.984  10.112
30015W        W72026   0.011  25.401   7.892
30016W        W72027  14.569  18.184   4.272
30017W        W72028  15.149  10.674   5.052
30018W        W72029  14.779  24.431   3.752
30019W        W72030  16.469  17.804   1.968
30020W        W72031   0.409  22.171   1.148
30021W        W72032  15.769   3.974  11.142
30022W        W72033  13.329  19.134   3.932
30023W        W72034   4.829  25.251   0.798
30024W        W72035  11.959   3.414   0.628
30025W        W72036   8.629   4.544   3.552
30026W        W72037  16.209  25.101  12.502
30027W        W72038   4.499   0.554   3.122
30028W        W72039  16.429  19.064   9.652
30029W        W72040   5.349  24.621  15.492
30030W        W72041   8.579  15.204   0.838
30031W        W72042  17.229  13.844   3.412
30032W        W72043   9.119   9.244  15.122
30033W        W72044   4.709   0.114   2.932
30034W        W72045  21.589  12.444   3.082
30035W        W72046  12.219   3.524  10.932
30036W        W72047   3.959  22.391  10.702
30037W        W72048  16.219   0.134   2.388
30038W        W72049   7.899  24.191   9.092
30039W        W72050   7.289  25.291   8.442
30040W        W72051  21.409  24.351  11.492
30041W        W72052  21.709  22.341   8.912
30042W        W72053  19.829   5.244  15.712
30043W        W72054   2.749  22.711   1.998
30044W        W72055  22.559   0.694   9.012
30045W        W72056  16.769   9.864   1.278
30046W        W72057  13.639   3.504  10.142
30047W        W72058  16.269  20.294   3.002
30048W        W72059  20.109   0.464   3.312
30049W        W72060  19.799  23.051   4.002
30050W        W72061  15.979   9.854   1.838
30051W        W72062   5.909  14.614   7.612
30052W        W72063  17.149  24.821   1.308
30053W        W72064  21.019  12.294  15.662
30054W        W72065  17.259   6.424   0.778
30055W        W72066   0.779   9.494   2.652
30056W        W72067  17.829  13.424  11.222
30057W        W72068   3.639  11.174  15.672
30058W        W72069   2.759   1.054   7.602
30059W        W72070   9.599   3.454   3.462
30060W        W72071   4.729  24.591  10.422
30061W        W72072  18.999  12.574   3.862
30062W        W72073  24.069  17.044   0.418
30063W        W72074   6.509  24.191  10.442
30064W        W72075   2.629   9.004   0.208
30065W        W72076  14.819   1.134   8.922
30066W        W72077  17.809   9.724   9.012
30067W        W72078  12.149   0.674  14.642
30068W        W72079   4.229   9.944  10.682
30069W        W72080  23.069  19.854  11.842
30070W        W72081  24.889  24.001  12.112
30071W        W72082  25.559  15.104  10.512
30072W        W72083  11.999  11.564  10.662
30073W        W72084  24.739  16.744   8.052
30074W        W72085  23.559  16.684   1.378
30075W        W72086  21.429   7.684  10.532
30076W        W72087   9.039  10.824   8.542
30077W        W72088  25.259  18.264   0.818
30078W        W72089   3.029   3.714   8.082
30079W        W72090  13.639   0.944  15.362
30080W        W72091  13.059  15.454   1.258
30081W        W72092  16.949  19.514   2.208
30082W        W72093   4.399   2.224   1.958
30083W        W72094  18.719   3.494   2.702
30084W        W72095  15.649  18.554  12.072
30085W        W72096  21.499   4.384   9.332
30086W        W72097  14.689  12.344   3.272
30087W        W72098   5.279  17.764   7.922
30088W        W72099   3.519  12.294  10.522
30089W        W72100  23.229  13.574   1.878
30090W        W72101   9.349   2.664  15.222
30091W        W72102  21.959   2.114  12.392
30092W        W72103  18.909   5.704   1.708
30093W        W72104  13.699   3.064   0.878
30094W        W72105  19.299   5.364   8.762
30095W        W72106  17.819   8.544  10.672
30096W        W72107  25.439  21.621   0.428
30097W        W72108   7.999  19.844   2.358
30098W        W72109  11.479  13.064   4.262
30099W        W72110   1.239   6.414  10.672
30100W        W72111   1.419   0.684  11.192
30101W        W72112  18.859   1.144   2.762
30102W        W72113   8.439  12.074   0.658
30103W        W72114  13.319  18.474   4.442
30104W        W72115   3.699  11.744   9.142
30105W        W72116  17.729  22.111   9.222
30106W        W72117  10.219  24.221   1.558
30107W        W72118  20.579   5.754   1.238
30108W        W72119   6.909  14.484   9.542
30109W        W72120  19.129   8.694   0.148
30110W        W72121  19.999   6.954   1.078
30111W        W72122  15.119  21.621   4.232
30112W        W72123  23.069   5.674  11.502
30113W        W72124  24.609  15.314  10.262
30114W        W72125   2.619  18.824   9.782
30115W        W72126   4.069  12.144   0.558
30116W        W72127  22.029  13.554   2.672
30117W        W72128  15.879   5.364   3.582
30118W        W72129  12.589  15.224   0.398
30119W        W72130  22.989   2.904   7.892
30120W        W72131   3.049   3.634  10.992
30121W        W72132   0.879  19.504   0.608
30122W        W72133  12.569   7.404   3.082
30123W        W72134  17.059   5.614  10.962
30124W        W72135  19.809  18.604  11.792
30125W        W72136   2.809   8.084   1.408
30126W        W72137  19.289  16.374   0.488
30127W        W72138  17.159  21.581   7.412
30128W        W72139  10.069   4.024   1.908
30129W        W72140  17.109   6.314   1.998
30130W        W72141  20.849   4.734   8.762
30131W        W72142  16.069  14.014   0.288
30132W        W72143   6.779  12.074   0.868
30133W        W72144   4.279  14.724  15.462
30134W        W72145  11.239  17.584   9.542
30135W        W72146  20.579  12.494   9.982
30136W        W72147   6.629  10.334  15.512
30137W        W72148  24.109  16.594   0.748
30138W        W72149  18.899  15.554  15.512
30139W        W72150   4.139  18.424  11.382
30140W        W72151   6.619   5.204   8.512
30141W        W72152   6.039  19.604   0.258
30142W        W72153  14.479  20.544  15.642
30143W        W72154   4.409  25.541   9.642
30144W        W72155   9.839   3.144   2.408
30145W        W72156  16.549  22.691   9.392
30146W        W72157   9.009  14.454  15.582
30147W        W72158   0.569  18.994   3.212
30148W        W72159  15.039   3.804   0.188
30149W        W72160   1.599   4.504   2.662
30150W        W72161  24.909  21.521   3.962
30151W        W72162  16.389  16.014   9.872
30152W        W72163  17.079  25.561   2.692
30153W        W72164   8.009  24.101   8.252
30154W        W72165  18.359  10.554   1.158
30155W        W72166   4.289  17.784  10.212
30156W        W72167  24.639   1.364   2.048
30157W        W72168   7.039   7.764   2.662
30158W        W72169   6.599  23.231  11.412
30159W        W72170  23.029  18.284  12.362
30160W        W72171  18.149   6.614   0.348
30161W        W72172  21.389   4.094  10.912
30162W        W72173  17.699   8.564   2.138
30163W        W72174  25.459  19.794   8.192
30164W        W72175  19.179  23.081   9.912
30165W        W72176  20.799  20.044  10.062
30166W        W72177  18.869  22.891   2.018
30167W        W72178  18.509  11.434   2.188
30168W        W72179   9.689  18.574   8.732
30169W        W72180  21.579  13.854  10.372
30170W        W72181  15.579   1.864   2.318
30171W        W72182   0.789   6.694  10.732
30172W        W72183  15.329  14.174   1.498
30173W        W72184   7.099  15.824   3.902
30174W        W72185  22.719  12.454   9.392
30175W        W72186   4.129  13.584   0.398
30176W        W72187  12.529  24.671   3.182
30177W        W72188  23.309  16.764   0.648
30178W        W72189   3.669   3.494  15.062
30179W        W72190  12.619  12.844   1.828
30180W        W72191  10.859  17.154   1.398
30181W        W72192  23.539   1.074   8.522
30182W        W72193   9.669  25.391   9.592
30183W        W72194  24.989   8.134  11.242
30184W        W72195  10.399  15.224   1.138
30185W        W72196  19.909  23.291   2.712
30186W        W72197  23.799  15.284   9.612
30187W        W72198  20.089  20.644   1.248
30188W        W72199   5.059   5.394   2.722
30189W        W72200   3.129  21.881  10.552
30190W        W72201  21.789  22.531   1.328
30191W        W72202   1.769  24.041  10.352
30192W        W72203  24.109  11.464   9.222
30193W        W72204  11.159  17.674   3.642
30194W        W72205   9.339   7.324   8.062
30195W        W72206   7.099   2.224   3.612
30196W        W72207   2.899  24.021  10.222
30197W        W72208   7.069  17.824   1.838
30198W        W72209   2.459   0.364   0.728
30199W        W72210   7.709  15.574   0.318
30200W        W72211   5.409  22.571  10.912
30201W        W72212  21.629  18.734   1.918
30202W        W72213  22.429  10.794  10.962
30203W        W72214  12.619   2.234   0.888
30204W        W72215  12.289   9.144   1.028
30205W        W72216  21.189   6.324   3.152
30206W        W72217  21.769  13.364   7.672
30207W        W72218  23.599   3.334  15.832
30208W        W72219   6.359  15.614  11.032
30209W        W72220   0.679   8.544  10.262
30210W        W72221   3.219  13.254   0.018
30211W        W72222   3.689  21.184  11.332
30212W        W72223  11.369   7.044  10.352
30213W        W72224  10.169   1.144  15.372
30214W        W72225  23.569  20.914   3.122
30215W        W72226   2.819  19.504   3.022
30216W        W72227  12.009  17.604   8.942
30217W        W72228  24.439   3.464  15.822
30218W        W72229  21.129   1.014  10.102
30219W        W72230  18.459   6.144   8.232
30220W        W72231   9.339  19.934   0.628
30221W        W72232  16.749  20.654  10.052
30222W        W72233  23.799   8.804   1.798
30223W        W72234  17.629  11.524   8.752
30224W        W72235   9.669   9.594   0.618
30225W        W72236  19.179  19.854   0.438
30226W        W72237   6.069  21.064  11.772
30227W        W72238  20.149   6.014   1.188
30228W        W72239  21.449  16.374   9.982
30229W        W72240  13.689  12.934  14.732
30230W        W72241   0.079  10.154   8.982
30231W        W72242   2.579  12.734  11.642
30232W        W72243  11.759  22.611   3.472
30233W        W72244  17.799  14.324  10.302
30234W        W72245  16.229   1.854   3.042
30235W        W72246  23.779   9.774   1.988
30236W        W72247   5.939  17.474   2.792
30237W        W72248   1.199  12.354   0.958
30238W        W72249  10.319  17.124   0.338
30239W        W72250  25.069   1.044   1.548
30240W        W72251   0.719   2.584  10.322
30241W        W72252  24.279   9.954   9.612
30242W        W72253  12.459   8.944   9.102
30243W        W72254  21.749  22.501  11.972
30244W        W72255  22.999  13.104  11.112
30245W        W72256  14.719  22.621   1.058
30246W        W72257  21.739  25.101   2.842
30247W        W72258  11.849  24.691   2.438
30248W        W72259   7.739   3.544   3.072
30249W        W72260  24.939  16.134  11.212
30250W        W72261   3.389  21.701  11.792
30251W        W72262  12.939  12.354   4.462
30252W        W72263   1.109   1.994   7.882
30253W        W72264  19.829  19.254   9.322
30254W        W72265  21.519   2.004  10.142
30255W        W72266   7.579   8.544   9.662
30256W        W72267  21.439  20.954   3.012
30257W        W72268  12.659   1.704   3.792
30258W        W72269  23.319  11.644  11.072
30259W        W72270   1.299   6.794   8.642
30260W        W72271   1.589  16.494   8.512
30261W        W72272   7.239   5.414   8.792
30262W        W72273  21.749   9.444   2.922
30263W        W72274  10.939  22.971   2.672
30264W        W72275  16.389  12.514   3.482
30265W        W72276   0.289   4.904  15.182
30266W        W72277  16.759   2.584   1.998
30267W        W72278  12.839   6.864   4.752
30268W        W72279   6.069  13.194   0.438
30269W        W72280  19.469   1.104  10.562
30270W        W72281  15.899  19.754   9.932
30271W        W72282  24.549  11.554  10.432
30272W        W72283   3.279   2.324   9.812
30273W        W72284   0.909  17.744   3.142
30274W        W72285  18.579  24.441   1.048
30275W        W72286  10.469   1.304  15.752
30276W        W72287   5.399  12.004  15.232
30277W        W72288  20.109  23.181  10.952
30278W        W72289  12.709  13.984   2.228
30279W        W72290  15.589   9.794   0.748
30280W        W72291   7.149  17.564   1.078
30281W        W72292   5.709  11.914   3.202
30282W        W72293  10.889   1.184   0.248
30283W        W72294   5.139   4.554  10.662
30284W        W72295   7.779  23.701   3.272
30285W        W72296   6.599  20.914   4.242
30286W        W72297   5.019  10.674   9.322
30287W        W72298  18.439   7.244   0.008
30288W        W72299   4.369   5.544   8.412
30289W        W72300   4.459   1.034   2.522
30290W        W72301  25.319  12.744  11.102
30291W        W72302   2.239   3.244  15.592
30292W        W72303   6.569   2.454  10.642
30293W        W72304  22.449   3.094   0.818
30294W        W72305  12.159   2.244   9.192
30295W        W72306   1.749  16.654   8.072
30296W        W72307  14.569   4.354  10.432
30297W        W72308  10.619   0.534  10.022
30298W        W72309  13.409  10.674   9.022
30299W        W72310  16.279   8.044   8.182
30300W        W72311  13.929   7.424   8.102
30301W        W72312  23.349   1.194   1.608
30302W        W72313  12.829  17.234   2.438
30303W        W72314  24.899  15.584  15.712
30304W        W72315   1.889   7.514  10.102
30305W        W72316  12.289  23.271   8.452
30306W        W72317  20.629  18.244   9.422
30307W        W72318  13.829   3.054   3.042
30308W        W72319   7.359  18.704   9.732
30309W        W72320  11.969  16.784   0.718
30310W        W72321   6.189   3.024   1.958
30311W        W72322  17.799  12.834   3.162
30312W        W72323   9.239  14.884   9.462
30313W        W72324  19.579   8.364   7.412
30314W        W72325   7.119  23.641   2.148
30315W        W72326   1.689  16.454  11.812
30316W        W72327   1.339  16.914   8.262
30317W        W72328  17.859  23.091  10.762
30318W        W72329  24.919  11.044   7.552
30319W        W72330  16.259   2.154  15.242
30320W        W72331  23.659  24.321   0.408
30321W        W72332  18.579  11.294  10.182
30322W        W72333   5.759   1.064  10.212
30323W        W72334   7.559  13.064   7.792
30324W        W72335   7.979  11.284   0.638
30325W        W72336  18.189  22.781   3.032
30326W        W72337  10.039   5.544   2.048
30327W        W72338   4.959  14.934   7.872
30328W        W72339  20.979   2.054   3.392
30329W        W72340  21.529  12.074   2.208
30330W        W72341  13.629  11.434   2.742
30331W        W72342  16.089  19.864  11.872
30332W        W72343   9.629   7.944  14.622
30333W        W72344   9.869   1.764   1.218
30334W        W72345  16.329   1.704  15.072
30335W        W72346  15.339   7.794   1.948
30336W        W72347   8.849   3.944  15.002
30337W        W72348  16.709  22.321   7.852
30338W        W72349   4.159   3.514  14.722
30339W        W72350  14.549  12.294   1.868
30340W        W72351   0.639   0.284   0.828
30341W        W72352  17.399   6.084   2.662
30342W        W72353   6.749   8.984   7.412
30343W        W72354   5.739  14.344   1.058
30344W        W72355  14.569   1.874   8.232
30345W        W72356   6.639  17.264   7.712
30346W        W72357  23.959  22.951  10.882
30347W        W72358  24.329  15.904   2.218
30348W        W72359  17.609   8.834   8.972
30349W        W72360  14.959  19.304   3.242
30350W        W72361  19.049   8.314   0.378
30351W        W72362   0.739  23.591  15.572
30352W        W72363  16.509  11.344   3.862
30353W        W72364   2.829  24.191   8.352
30354W        W72365   4.429  21.104   8.642
30355W        W72366  17.249   0.994   1.068
30356W        W72367   7.009  10.074  14.622
30357W        W72368   2.119   8.544  11.342
30358W        W72369  21.459  21.721  10.672
30359W        W72370  12.509  13.814   4.032
30360W        W72371   6.249   5.314  11.182
30361W        W72372  11.079  13.724   4.902
30362W        W72373  24.249   6.694   7.392
30363W        W72374   1.479  23.741  10.122
30364W        W72375   0.949   4.614   3.302
30365W        W72376  14.749  13.574  14.942
30366W        W72377  10.389  14.414   2.418
30367W        W72378  12.389   2.614   0.108
30368W        W72379  18.879   6.434   1.038
30369W        W72380  23.969  11.204   3.762
30370W        W72381  18.089  13.894   0.128
30371W        W72382   7.749   3.504  10.852
30372W        W72383  14.869  19.564   2.752
30373W        W72384  15.719  13.204  15.182
30374W        W72385   9.719   2.324   0.798
30375W        W72386  18.049   5.434   3.242
30376W        W72387  16.819  15.394  15.152
30377W        W72388   8.989   3.004   8.842
30378W        W72389  18.979   2.394   9.772
30379W        W72390  23.939  16.924   8.182
30380W        W72391  15.699  10.274   2.982
30381W        W72392  23.999  21.901   1.508
30382W        W72393  14.129   8.424  14.252
30383W        W72394   3.449   7.894   8.362
30384W        W72395  22.509   9.994   1.118
30385W        W72396   0.499  15.414   9.612
30386W        W72397   3.119  21.371   8.862
30387W        W72398  13.659  12.734  15.432
30388W        W72399  25.229  11.174   7.972
30389W        W72400  16.049  10.184  10.412
30390W        W72401  20.619  23.771   3.942
30391W        W72402  12.089   8.774   0.768
30392W        W72403   0.479   5.204  10.992
30393W        W72404  10.389   7.354  14.812
30394W        W72405  18.909   7.724   8.722
30395W        W72406  20.499  10.554   0.978
30396W        W72407  18.979  22.321   0.058
30397W        W72408  20.249  18.374   3.832
30398W        W72409   6.249   5.434   8.802
30399W        W72410   5.629   4.904   1.318
30400W        W72411   1.129   2.334  11.202
30401W        W72412   0.189   0.454   7.262
30402W        W72413   3.379  20.524   2.188
30403W        W72414   0.749  18.084   1.258
30404W        W72415  10.649  15.654   2.892
30405W        W72416  12.719   0.424   9.282
30406W        W72417  11.699   1.144   8.982
30407W        W72418  13.019  12.974   9.862
30408W        W72419  12.889   6.514  15.292
30409W        W72420  23.459   7.094   2.138
30410W        W72421  10.849   1.704   1.068
30411W        W72422  20.349  16.524   4.052
30412W        W72423   6.099   9.184  15.642
30413W        W72424   9.719  10.004   3.932
30414W        W72425  18.679   6.534   1.858
30415W        W72426   9.759  12.164  15.192
30416W        W72427  12.819  10.474   1.698
30417W        W72428  12.729  17.034   4.902
30418W        W72429  20.679   3.594   8.312
30419W        W72430  13.839   7.444   2.348
30420W        W72431  20.749  11.094   8.832
30421W        W72432  16.379  17.584  11.962
30422W        W72433   0.001   1.394   8.502
30423W        W72434  12.819   1.064   3.582
30424W        W72435  23.299   7.924  15.372
30425W        W72436   2.779   1.734   8.772
30426W        W72437   5.019   0.404   8.112
30427W        W72438   8.229   6.364   9.102
30428W        W72439  25.479  19.114   0.518
30429W        W72440  15.239  11.764   3.522
30430W        W72441  25.319  24.521   9.162
30431W        W72442   4.499   5.674  15.062
30432W        W72443  14.409   3.634   3.192
30433W        W72444   9.929  12.964   9.642
30434W        W72445   6.779  21.024   8.552
30435W        W72446   5.979  25.501  11.382
30436W        W72447   9.469   6.814   3.292
30437W        W72448   3.579   2.204   2.098
30438W        W72449   1.209   6.534  11.152
30439W        W72450  11.719  21.294   1.998
30440W        W72451   3.349   5.434   8.672
30441W        W72452   6.949   6.554   2.228
30442W        W72453   9.209  14.054  15.782
30443W        W72454  12.649  17.674   4.182
30444W        W72455  25.189   0.264  10.712
30445W        W72456  22.579  24.351   8.772
30446W        W72457   2.989  19.774   8.222
30447W        W72458  18.019  18.284   7.792
30448W        W72459  14.659   1.104   9.702
30449W        W72460  17.869  17.454   7.592
30450W        W72461  12.549  12.054   3.712
30451W        W72462  22.039  25.541  10.722
30452W        W72463  11.839  13.274   0.328
30453W        W72464  17.099  17.794   3.552
30454W        W72465  17.199  24.851   0.438
30455W        W72466  16.609   2.894  14.882
30456W        W72467  24.829  23.181   1.848
30457W        W72468   8.679   2.634   8.912
30458W        W72469  23.189  16.994   1.098
30459W        W72470  13.779  11.334  15.522
30460W        W72471   3.159  12.564   1.518
30461W        W72472  14.229   7.834   3.742
30462W        W72473  15.279  12.394   4.952
30463W        W72474  19.049  12.994   0.398
30464W        W72475  14.579  19.544   1.888
30465W        W72476  23.909  15.054   1.168
30466W        W72477  24.539   8.774  10.252
30467W        W72478   3.029  22.811   0.488
30468W        W72479  12.119  11.714  15.852
30469W        W72480  19.779   7.894   0.508
30470W        W72481  18.809   0.344  12.762
30471W        W72482   6.849  18.424   1.668
30472W        W72483   9.219  20.264   2.902
30473W        W72484  17.869  12.954   0.098
30474W        W72485  14.949  12.764   3.942
30475W        W72486  21.889  24.701   3.082
30476W        W72487  18.809  10.874   0.518
30477W        W72488  24.069  12.584   0.128
30478W        W72489  20.819  23.901  11.682
30479W        W72490  10.199   0.284   8.572
30480W        W72491  14.149  15.684   3.122
30481W        W72492  18.589  10.964   1.958
30482W        W72493  17.519  22.651   3.762
30483W        W72494   8.069  20.144   0.138
30484W        W72495  11.019   8.444  14.272
30485W        W72496  10.379  12.384  10.182
30486W        W72497   1.749   6.454   8.562
30487W        W72498  12.109   6.674  10.432
30488W        W72499   3.519   1.984   0.258
30489W        W72500  24.939  12.044   8.432
30490W        W72501  17.149  12.124   3.492
30491W        W72502  25.489   1.354   7.792
30492W        W72503  11.029  17.674   1.368
30493W        W72504  15.619   1.804   3.592
30494W        W72505  15.979  14.154   9.052
30495W        W72506   4.349  21.391   9.762
30496W        W72507  14.359   9.184   0.848
30497W        W72508   5.009   6.564   9.402
30498W        W72509  16.089   6.254   3.982
30499W        W72510  23.149   3.314   7.692
30500W        W72511   4.929  14.844   3.022
30501W        W72512   6.649  14.924  11.232
30502W        W72513   3.019  10.104  10.082
30503W        W72514  24.779  22.751  10.882
30504W        W72515  24.279  16.534  10.802
30505W        W72516   9.449  15.374   2.408
30506W        W72517   6.559   5.854   3.472
30507W        W72518  14.559   1.284   3.722
30508W        W72519  15.039  15.294   2.902
30509W        W72520   5.799  24.871   3.352
30510W        W72521   6.079  14.114   2.532
30511W        W72522  13.619  12.004   2.752
30512W        W72523  24.169  11.524   1.008
30513W        W72524   7.229   8.264   0.758
30514W        W72525   0.899  11.034   3.032
30515W        W72526   2.719   7.054   7.442
30516W        W72527  23.259   8.034   3.072
30517W        W72528  16.069  22.731   2.138
30518W        W72529  19.829   8.754   3.692
30519W        W72530   7.159  23.031   8.972
30520W        W72531   8.449  17.294   2.448
30521W        W72532  15.619   0.004   9.222
30522W        W72533   7.379  24.391   1.598
30523W        W72534   2.089  17.904   1.438
30524W        W72535   4.969  11.414  10.522
30525W        W72536   9.739   2.854  10.342
30526W        W72537  14.699  19.334  10.312
30527W        W72538   3.009  22.171  10.962
30528W        W72539   0.099   7.304   8.342
30529W        W72540  22.169  13.984  10.512
30530W        W72541   9.579  11.774   3.852
30531W        W72542  20.359   2.034  10.452
30532W        W72543   3.259  25.061  15.042
30533W        W72544   7.089  23.721   0.798
30534W        W72545  17.929  12.354   2.972
30535W        W72546   0.001  13.564  11.402
30536W        W72547  22.799  15.894   8.982
30537W        W72548  12.469  14.514   4.782
30538W        W72549   6.309  21.691   7.412
30539W        W72550  17.399  21.314   2.632
30540W        W72551   8.219  14.144   2.048
30541W        W72552  23.079   7.314   8.352
30542W        W72553  24.159  20.184   2.408
30543W        W72554   0.909   7.164  10.432
30544W        W72555  19.609   8.844   0.328
30545W        W72556  15.939   5.564   2.762
30546W        W72557   4.189  20.964  15.522
30547W        W72558   0.219  21.401   0.628
30548W        W72559  12.479   1.894   3.402
30549W        W72560   7.389  18.964  10.182
30550W        W72561  18.699  20.694   8.952
30551W        W72562   8.609   9.594  14.452
30552W        W72563   4.899   4.444   2.358
30553W        W72564   7.339  19.054   1.758
30554W        W72565  10.209  22.181   0.928
30555W        W72566   7.879  17.534  10.272
30556W        W72567  23.339  13.964   8.082
30557W        W72568  16.319  22.631   0.398
30558W        W72569  20.379  10.134   9.322
30559W        W72570  24.739  17.294  11.662
30560W        W72571  10.259   8.024   8.442
30561W        W72572   3.449  12.924   7.462
30562W        W72573   9.159  21.681   1.708
30563W        W72574  18.219  18.244   2.902
30564W        W72575   6.969   4.374   8.722
30565W        W72576  13.669   9.514   0.488
30566W        W72577   7.509  19.234  11.502
30567W        W72578  12.469   5.044   2.328
30568W        W72579  22.329  11.234   9.332
30569W        W72580  17.049  19.974   3.492
30570W        W72581   4.519  19.574  10.612
30571W        W72582  20.769  17.424  12.032
30572W        W72583   4.329   9.174  10.232
30573W        W72584  15.119   4.834   0.308
30574W        W72585  18.779  21.371   0.178
30575W        W72586  18.789  10.424   9.652
30576W        W72587   5.819  15.114   9.442
30577W        W72588  17.869   1.244  11.162
30578W        W72589  21.569   3.944   9.812
30579W        W72590   7.119  24.841   1.438
30580W        W72591   0.709   1.944   8.212
30581W        W72592   8.489   3.074   3.632
30582W        W72593  20.759  22.271  10.492
30583W        W72594  12.189   5.914  15.182
30584W        W72595  24.579  20.894   0.508
30585W        W72596   3.139  18.004  10.942
30586W        W72597   2.999  20.904   3.332
30587W        W72598   3.929   6.484   0.368
30588W        W72599  17.709   3.624  10.882
30589W        W72600  11.119  23.911   9.902
30590W        W72601  19.049  20.904   9.302
30591W        W72602  18.089  21.761  10.482
30592W        W72603  16.609   9.404   3.852
30593W        W72604   0.499  23.041   8.532
30594W        W72605   3.949   3.454   1.678
30595W        W72606   7.289  12.574   2.398
30596W        W72607   6.799  16.784   1.148
30597W        W72608   0.439   7.244  10.162
30598W        W72609   0.179  23.791  12.052
30599W        W72610   8.959  12.744   8.862
30600W        W72611   4.559  24.341   1.708
30601W        W72612  24.909  18.834   1.568
30602W        W72613  21.079  17.344   2.198
30603W        W72614  20.569   8.604   9.002
30604W        W72615  17.949  10.614   2.038
30605W        W72616  14.959   8.234   1.728
30606W        W72617   5.019  22.561   9.692
30607W        W72618   3.659  19.154   2.812
30608W        W72619  10.059   4.054   3.932
30609W        W72620  18.469  17.774   9.362
30610W        W72621  21.559   1.604   2.308
30611W        W72622   8.969   9.154   3.082
30612W        W72623  21.439   9.214   7.622
30613W        W72624  14.579  16.094   4.132
30614W        W72625   1.579  10.354   0.948
30615W        W72626   2.469   0.474  11.522
30616W        W72627   3.969  17.774   1.168
30617W        W72628   1.099  23.881  10.842
30618W        W72629   2.689   0.534   0.228
30619W        W72630  25.219   0.814  10.782
30620W        W72631   5.579   4.264  11.522
30621W        W72632  24.159   3.874   7.232
30622W        W72633  15.549  14.174   4.212
30623W        W72634   7.719  20.444   1.028
30624W        W72635  23.989   5.864   8.572
30625W        W72636  16.219  17.414   1.748
30626W        W72637  18.079  25.441   9.322
30627W        W72638  25.559  22.501   2.378
30628W        W72639  18.799   2.214   8.852
30629W        W72640   3.219  14.264   3.212
30630W        W72641  13.819   8.654   9.732
30631W        W72642   4.179  14.644   0.148
30632W        W72643  11.379   2.684   1.108
30633W        W72644   0.049  20.804   9.692
30634W        W72645  17.079  11.154   2.068
30635W        W72646  16.179  11.604   0.328
30636W        W72647  16.379   3.094   2.118
30637W        W72648  17.139   7.504   1.228
30638W        W72649  17.709  13.624   0.888
30639W        W72650   5.879  16.434   7.752
30640W        W72651   2.839  10.864   7.792
30641W        W72652  17.789   8.934   1.058
30642W        W72653  10.799   2.844   2.542
30643W        W72654  23.059  11.904  10.162
30644W        W72655  18.349  12.594   0.708
30645W        W72656  17.049   1.054   1.758
30646W        W72657   9.239   5.404  14.442
30647W        W72658  16.989  24.371   2.138
30648W        W72659  19.249  20.744  11.172
30649W        W72660  25.229   9.474   1.408
30650W        W72661   4.839   3.384   0.238
30651W        W72662   0.349   0.934   8.362
30652W        W72663  13.999  14.974   4.622
30653W        W72664   7.109   1.324   7.952
30654W        W72665  23.369   6.564   1.898
30655W        W72666  14.059  22.231  10.832
30656W        W72667  12.469   5.764   2.662
30657W        W72668   6.099  24.881   0.528
30658W        W72669  25.259  14.244  12.352
30659W        W72670   2.859  12.854   9.392
30660W        W72671   1.109  13.034  10.332
30661W        W72672  11.269  24.521   2.348
30662W        W72673  22.969  12.794   1.608
30663W        W72674  18.329  14.784   9.792
30664W        W72675  18.789  25.421   3.102
30665W        W72676   0.209   7.814   9.972
30666W        W72677   9.649  14.234   1.418
30667W        W72678  11.689   2.324   9.642
30668W        W72679   1.899  10.474  10.262
30669W        W72680   5.379   4.014   4.112
30670W        W72681   8.859   7.894   1.048
30671W        W72682   2.889  23.651  10.612
30672W        W72683  10.779   7.654  15.532
30673W        W72684  12.269  11.274   4.722
30674W        W72685  17.299   5.744   8.772
30675W        W72686  14.609  24.951   1.868
30676W        W72687   4.059   8.284   2.512
30677W        W72688  16.509   6.574   8.422
30678W        W72689   0.439   7.584   7.612
30679W        W72690   4.899   6.234   9.842
30680W        W72691  13.409  24.651  15.852
30681W        W72692   1.459  21.164  11.692
30682W        W72693  18.049   4.194   1.228
30683W        W72694   6.469  25.181   3.472
30684W        W72695  18.229  10.634   0.058
30685W        W72696  24.149  21.391  10.252
30686W        W72697  16.489  18.034  15.382
30687W        W72698  23.669  22.951   8.462
30688W        W72699  22.849   4.354   1.758
30689W        W72700  13.289   4.564   1.768
30690W        W72701  19.179   1.524  15.372
30691W        W72702  15.919   0.524   1.128
30692W        W72703  11.169   7.874   8.592
30693W        W72704  12.889  12.004   0.628
30694W        W72705  11.439  24.531   9.012
30695W        W72706   1.069  15.064   0.838
30696W        W72707  20.919   2.204   2.358
30697W        W72708  22.219   3.834   9.282
30698W        W72709   5.219  20.364   0.938
30699W        W72710   9.629   7.314   3.412
30700W        W72711   6.479   2.624   3.112
30701W        W72712  22.779  16.034   0.558
30702W        W72713   2.959   1.634   8.302
30703W        W72714  16.259  24.411   9.722
30704W        W72715   0.229  19.864  10.732
30705W        W72716  13.149  10.404   3.992
30706W        W72717  19.889  22.171   9.512
30707W        W72718   8.329  14.894   3.982
30708W        W72719   5.509  23.591   1.348
30709W        W72720  14.279  16.724   0.608
30710W        W72721   3.709  25.081   1.968
30711W        W72722  10.049   7.904   3.232
30712W        W72723   8.129   7.384  15.002
30713W        W72724  10.029  13.734  15.192
30714W        W72725  22.149   7.304  11.072
30715W        W72726   8.739   8.134  14.852
30716W        W72727  13.169  19.864   8.642
30717W        W72728   1.989  25.491   8.492
30718W        W72729  24.109  19.824  15.752
30719W        W72730  20.509   0.074   9.812
30720W        W72731  18.399  12.034   3.002
30721W        W72732  15.179   4.154   1.168
30722W        W72733  14.929  14.094   2.348
30723W        W72734   3.189  11.204   8.562
30724W        W72735   5.559   2.764   0.358
30725W        W72736   0.619  16.154   2.118
30726W        W72737  18.259  13.394   1.538
30727W        W72738  10.589  19.634   9.612
30728W        W72739  16.119  16.504   1.898
30729W        W72740   9.599   0.644   4.462
30730W        W72741  19.649  21.971   1.158
30731W        W72742   0.629  20.434   7.752
30732W        W72743  19.179  14.434   2.278
30733W        W72744  11.819   9.134   8.602
30734W        W72745  15.759  23.351   1.748
30735W        W72746   3.869   8.304   8.852
30736W        W72747  18.299  13.074   1.118
30737W        W72748   9.379   8.754   3.042
30738W        W72749   6.959  24.121   3.112
30739W        W72750  20.109  12.674  10.032
30740W        W72751  11.529  24.511   1.668
30741W        W72752   1.299  13.574   3.262
30742W        W72753  24.879  17.544   4.282
30743W        W72754  21.589  11.554   7.672
30744W        W72755  13.789  16.744   0.468
30745W        W72756  23.539   7.274   8.582
30746W        W72757  22.939   0.314   9.102
30747W        W72758   7.469  19.214   3.602
30748W        W72759  13.959   8.224   3.082
30749W        W72760  18.289  16.924   3.572
30750W        W72761  21.469   5.404   1.058
30751W        W72762  24.769   7.554   3.172
30752W        W72763   1.949  11.784   9.192
30753W        W72764  20.029   6.874   1.608
30754W        W72765  10.499  11.864  11.162
30755W        W72766   9.629  15.144   3.132
30756W        W72767  18.109  15.484   9.372
30757W        W72768   3.119  21.871   1.678
30758W        W72769  15.219   9.714  15.102
30759W        W72770  18.769  18.154  15.772
30760W        W72771  19.579  19.434  10.352
30761W        W72772  10.679  15.234   4.322
30762W        W72773  22.359  15.654   0.758
30763W        W72774   5.009   1.184   8.642
30764W        W72775   5.819  11.894  14.902
30765W        W72776   5.779   3.094   8.592
30766W        W72777  14.719  23.141   3.352
30767W        W72778  19.579  22.971   0.768
30768W        W72779   2.609   4.594   0.268
30769W        W72780   4.569  16.764   0.748
30770W        W72781  19.659  14.774  10.042
30771W        W72782   2.829  12.164   8.902
30772W        W72783  24.079   8.904   6.952
30773W        W72784  17.499  23.451   0.578
30774W        W72785  12.929  16.514  15.412
30775W        W72786   1.699  18.944  10.482
30776W        W72787   6.379   2.894  15.172
30777W        W72788  16.409   8.624   1.128
30778W        W72789   1.789  16.514  11.202
30779W        W72790   5.949  14.384  10.192
30780W        W72791  24.129   5.394   3.012
30781W        W72792  14.449  11.044   3.452
30782W        W72793   9.389  11.224   4.602
30783W        W72794   3.159   2.804   9.642
30784W        W72795   3.389   6.604   0.538
30785W        W72796   7.089  19.424  11.362
30786W        W72797   6.539  20.534   2.348
30787W        W72798  17.379  20.344   7.952
30788W        W72799   5.239  19.404   0.758
30789W        W72800   5.409   0.664  11.212
30790W        W72801  15.169  20.694   2.358
30791W        W72802   9.279  23.381   8.612
30792W        W72803  25.449  10.674   9.142
30793W        W72804   3.969   3.554   9.822
30794W        W72805   1.239   4.104   8.322
30795W        W72806  12.709   0.164   3.032
30796W        W72807  13.899  18.094   0.938
30797W        W72808  23.079  10.034   8.482
30798W        W72809  14.629   5.114   4.112
30799W        W72810   2.839  10.694  10.812
30800W        W72811  21.769  19.544   8.232
30801W        W72812   5.169   5.234   0.018
30802W        W72813   3.809  21.701   8.302
30803W        W72814   5.759   7.404   1.248
30804W        W72815  21.659   2.724   2.178
30805W        W72816  15.999  18.864   9.462
30806W        W72817  24.059  10.234   7.902
30807W        W72818  20.069   9.824   9.102
30808W        W72819  18.829   9.044   3.692
30809W        W72820  21.469  11.204   9.842
30810W        W72821   5.379  14.114   8.922
30811W        W72822  20.249  11.344  11.092
30812W        W72823   2.629   1.444   0.688
30813W        W72824  17.989  22.451   9.542
30814W        W72825  22.909   0.864   3.932
30815W        W72826   1.079   6.974   9.462
30816W        W72827  20.909   2.694  10.172
30817W        W72828   8.319   9.444   2.168
30818W        W72829   3.999  19.754   3.662
30819W        W72830  22.649   9.164   8.242
30820W        W72831   0.659   4.254   0.898
30821W        W72832  24.319  24.301  11.822
30822W        W72833   6.779  21.841   1.168
30823W        W72834   5.479   3.374  15.502
30824W        W72835  17.069  16.744   9.212
30825W        W72836  16.879   0.294   0.248
30826W        W72837  10.499   1.464   9.622
30827W        W72838  20.399  20.054   8.172
30828W        W72839  12.669  14.314  14.902
30829W        W72840   6.019  25.341   9.542
30830W        W72841   7.929  25.051   9.862
30831W        W72842  15.229   4.104   3.452
30832W        W72843  22.749  11.624  15.652
30833W        W72844  10.149  21.344   4.242
30834W        W72845   1.479   5.754   0.848
30835W        W72846   2.009   6.194   0.758
30836W        W72847   5.529   1.964   3.622
30837W        W72848  21.519  24.791  10.242
30838W        W72849  16.169  12.084   3.632
30839W        W72850  15.229  16.354   9.412
30840W        W72851  24.219  23.211  11.682
30841W        W72852  23.629  18.924   9.582
30842W        W72853   0.479   6.604   0.738
30843W        W72854  14.689   6.914   2.058
30844W        W72855  24.559   6.254  15.332
30845W        W72856  24.379  23.051  11.132
30846W        W72857  19.769   3.394  11.542
30847W        W72858   6.619  22.751   1.238
30848W        W72859  11.909   8.874   3.092
30849W        W72860  12.119  12.054  15.242
30850W        W72861  11.929   8.624   2.672
30851W        W72862  23.059  14.994   2.228
30852W        W72863  16.569  17.714   0.448
30853W        W72864   5.749  22.091  10.922
30854W        W72865   1.569  20.774   8.842
30855W        W72866   3.119  15.794   0.028
30856W        W72867  25.179  24.141   8.762
30857W        W72868  24.909  11.094   0.068
30858W        W72869   8.329   9.574   8.982
30859W        W72870   0.929  24.521   1.848
30860W        W72871   3.269  10.074   8.192
30861W        W72872  24.349   8.144   7.962
30862W        W72873   9.109   1.004  14.362
30863W        W72874   9.949  10.034   8.202
30864W        W72875  22.749  16.384   8.922
30865W        W72876  11.499  21.951   1.498
30866W        W72877  20.579   6.504   0.288
30867W        W72878  23.209  11.024   0.598
30868W        W72879   2.509  18.194   3.142
30869W        W72880  10.389  19.994   9.252
30870W        W72881  11.589  21.721   3.692
30871W        W72882  19.029  14.964   9.042
30872W        W72883   1.999  15.844   8.662
30873W        W72884  18.289  20.214   7.202
30874W        W72885  17.669   2.204   1.888
30875W        W72886   9.449   7.614  11.492
30876W        W72887  21.169  20.864  10.142
30877W        W72888   2.979  17.404   9.592
30878W        W72889   3.389   6.854  14.772
30879W        W72890   0.879  20.424   0.728
30880W        W72891  20.609  15.894   1.328
30881W        W72892  24.989  23.411  10.962
30882W        W72893  10.859  10.094  15.682
30883W        W72894   5.789  18.624   2.278
30884W        W72895  14.159  17.294   1.328
30885W        W72896  14.059  13.224   4.162
30886W        W72897  15.979  19.074  10.492
30887W        W72898  14.959  18.764   1.528
30888W        W72899  12.959  13.694   3.422
30889W        W72900   2.609  10.814   8.192
30890W        W72901  21.679  15.344   0.798
30891W        W72902   1.739  22.621   9.192
30892W        W72903  22.259  16.384  10.022
30893W        W72904  13.319   6.854   8.422
30894W        W72905  18.109   8.524   3.242
30895W        W72906  22.419   6.954   9.432
30896W        W72907   5.899  19.134  14.932
30897W        W72908   6.269  15.704   8.242
30898W        W72909  16.879   9.524  15.432
30899W        W72910  17.619  18.924   7.872
30900W        W72911  14.599   3.214   1.708
30901W        W72912  15.269   6.364  11.132
30902W        W72913  14.049  17.694   0.668
30903W        W72914   5.799  17.004  11.002
30904W        W72915   1.729  11.884   2.882
30905W        W72916   1.769  13.464  10.632
30906W        W72917  18.069  19.034  15.282
30907W        W72918  23.849   9.954  10.372
30908W        W72919  21.789  14.294  10.282
30909W        W72920  24.619   8.724   0.368
30910W        W72921  24.509  15.314  11.472
30911W        W72922   1.299   8.624   2.932
30912W        W72923  16.899  11.164  10.122
30913W        W72924  15.439   1.954   8.472
30914W        W72925   6.279  11.354   0.438
30915W        W72926  16.139  19.664  15.752
30916W        W72927  12.659   2.684   8.512
30917W        W72928  15.799  19.584  11.452
30918W        W72929  12.739  20.064   7.852
30919W        W72930  20.419  12.594   9.452
30920W        W72931   7.649   9.744   7.342
30921W        W72932  23.629  16.344   0.748
30922W        W72933  10.519  18.224   0.558
30923W        W72934  17.539  15.084  15.622
30924W        W72935   0.879  17.464   2.398
30925W        W72936   2.689  18.484  10.582
30926W        W72937  17.139   3.074  14.732
30927W        W72938  11.359  16.384  10.542
30928W        W72939   0.829   7.264  10.902
30929W        W72940   6.569   3.854   2.028
30930W        W72941   2.809  19.904   8.752
30931W        W72942  13.839   3.954   1.898
30932W        W72943   8.749  20.174  15.712
30933W        W72944   9.439  23.451   2.068
30934W        W72945  21.459  22.961   7.532
30935W        W72946  10.139   3.104  15.502
30936W        W72947  25.379  12.804   3.732
30937W        W72948  16.899   3.494   8.732
30938W        W72949  21.279  10.564   9.952
30939W        W72950   6.729  20.934  11.142
30940W        W72951  14.449  22.411   2.338
30941W        W72952  24.069  13.784  11.412
30942W        W72953  17.079   7.034  11.172
30943W        W72954   7.769  12.664   0.218
30944W        W72955  13.379   4.144   4.712
30945W        W72956  13.919  10.664   0.198
30946W        W72957  19.899   7.104   0.058
30947W        W72958  21.149   0.444   2.058
30948W        W72959  12.579  20.834  10.152
30949W        W72960  25.569  21.821  15.872
30950W        W72961  18.199   2.214   4.092
30951W        W72962  12.249   1.264   3.842
30952W        W72963   3.199  22.751   9.432
30953W        W72964  14.249  15.254   1.938
30954W        W72965  15.529  13.544   9.652
30955W        W72966   9.179  14.984   1.408
30956W        W72967  14.819  14.634   2.498
30957W        W72968   7.499   7.804  10.102
30958W        W72969  15.359  21.481   9.322
30959W        W72970  22.839  10.474   8.582
30960W        W72971  11.629   8.474   3.112
30961W        W72972   1.609  21.371  10.242
30962W        W72973  16.499   5.494  10.862
30963W        W72974  11.779   6.254   9.902
30964W        W72975  14.479  21.981   1.218
30965W        W72976  22.739  24.511   2.622
30966W        W72977  24.109   5.504   0.238
30967W        W72978   9.439  23.931   2.498
30968W        W72979  16.609   6.294  14.662
30969W        W72980   0.409   0.154   1.228
30970W        W72981   2.189  21.961  10.472
30971W        W72982  23.799   6.914   6.892
30972W        W72983   2.369  25.131   8.472
30973W        W72984  15.719   9.574   8.512
30974W        W72985  20.149  12.704   8.292
30975W        W72986  19.349  14.194   7.362
30976W        W72987   4.409  11.864   9.552
30977W        W72988  19.929  21.531   3.082
30978W        W72989   1.889  10.304   8.242
30979W        W72990   4.159   2.864  11.122
30980W        W72991   8.429  12.794   1.188
30981W        W72992  22.889  15.124   8.092
30982W        W72993   8.389  21.821   3.342
30983W        W72994   3.479  23.361   2.248
30984W        W72995   2.699  16.794  11.302
30985W        W72996   0.749  19.784   3.822
30986W        W72997   4.999   0.014   3.452
30987W        W72998  23.889   3.714   7.942
30988W        W72999  14.079  21.511   4.732
30989W        W73000  16.829  24.471  12.082
30990W        W73001  12.959  12.924   4.312
30991W        W73002   9.489  20.794   3.982
30992W        W73003   5.189  20.604   1.778
30993W        W73004  22.339  15.744  11.092
30994W        W73005   0.519  13.044  15.562
30995W        W73006   5.979  23.861   1.678
30996W        W73007  20.299  10.054   0.308
30997W        W73008   4.549   7.914  10.742
30998W        W73009  17.529  20.394  10.162
30999W        W73010  18.569  12.914   0.318
31000W        W73011   8.369   7.404   9.452
31001W        W73012  14.129   1.124   9.992
31002W        W73013  20.039   3.264   9.362
31003W        W73014  10.729   9.884   2.842
31004W        W73015   4.999   0.694   8.542
31005W        W73016  11.669   5.264   2.942
31006W        W73017   8.679  16.864   8.612
31007W        W73018  10.569  14.054   0.478
31008W        W73019   1.209   2.484   2.408
31009W        W73020  13.649  23.041  10.492
31010W        W73021   9.319  15.504   3.142
31011W        W73022  13.409  24.361   8.412
31012W        W73023  15.359  16.474   2.108
31013W        W73024   3.499  20.864   0.248
31014W        W73025  18.339  19.354   7.322
31015W        W73026   6.209   8.204   0.188
31016W        W73027  24.699  15.314   7.912
31017W        W73028   4.839  16.454  10.022
31018W        W73029  19.169  17.734   2.388
31019W        W73030   0.809  12.614   1.268
31020W        W73031  18.649  19.584   6.952
31021W        W73032   4.139  22.601   2.952
31022W        W73033  10.059  25.061   9.872
31023W        W73034  10.839  14.454   3.712
31024W        W73035   7.859  20.174   3.992
31025W        W73036   2.519   1.104   0.268
31026W        W73037   8.019  15.874   4.252
31027W        W73038   0.849   6.174   7.202
31028W        W73039  11.749  19.894   1.708
31029W        W73040   6.299   9.554   2.018
31030W        W73041  24.959   8.494  10.092
31031W        W73042  22.369  23.111   9.252
31032W        W73043   2.789   2.124   3.222
31033W        W73044   6.429   1.994   0.158
31034W        W73045   2.129  16.024   1.538
31035W        W73046  24.059  21.144  11.502
31036W        W73047  14.629  22.811  15.672
31037W        W73048  15.949  15.764   8.602
31038W        W73049   8.419  24.841  10.432
31039W        W73050   1.669  10.254   6.772
31040W        W73051   9.559   5.624   2.468
31041W        W73052  18.069   7.974   9.022
31042W        W73053   2.979  21.561   1.228
31043W        W73054  21.389   1.134   3.082
31044W        W73055   4.909   9.114   1.648
31045W        W73056  10.309  11.704   1.608
31046W        W73057   5.549  15.124   8.982
31047W        W73058   3.339   7.784   6.992
31048W        W73059  20.069  23.241   0.848
31049W        W73060  14.129   4.064   3.122
31050W        W73061  15.859  18.454  11.612
31051W        W73062  10.539   9.754   1.118
31052W        W73063  17.699   7.854  14.892
31053W        W73064  24.419  18.104   0.668
31054W        W73065  14.629   4.274   3.232
31055W        W73066  13.399   3.074   8.752
31056W        W73067  13.189  13.414  10.452
31057W        W73068  18.759  15.024   3.992
31058W        W73069  20.169   0.594  12.222
31059W        W73070   0.179   0.694   0.998
31060W        W73071   8.879   2.684  10.512
31061W        W73072  21.179   4.434  10.602
31062W        W73073  24.779  21.344  11.172
31063W        W73074   2.119  10.694   8.012
31064W        W73075   1.099  16.214   8.582
31065W        W73076   7.069   7.614   1.748
31066W        W73077   7.399   1.394   9.802
31067W        W73078  22.979   6.634  10.072
31068W        W73079  12.719  12.754  15.572
31069W        W73080   0.959  20.444   9.872
31070W        W73081  16.889   1.424   9.722
31071W        W73082   6.269  14.414   8.322
31072W        W73083   7.659  25.501   0.838
31073W        W73084   8.099  12.874   1.898
31074W        W73085   3.049  16.384   8.072
31075W        W73086  15.909  15.024   9.302
31076W        W73087   1.279   0.164   8.932
31077W        W73088  20.689   4.364   1.648
31078W        W73089  20.869  13.524   8.672
31079W        W73090   5.209  22.881   2.318
31080W        W73091   9.039  24.401   3.692
31081W        W73092  21.559  23.171   2.942
31082W        W73093   1.229   1.154  10.412
31083W        W73094  17.669   7.874   2.762
31084W        W73095  22.719   8.124   0.898
31085W        W73096  12.959  22.731   0.588
31086W        W73097  22.309  17.344   9.022
31087W        W73098   8.439  13.704   8.682
31088W        W73099  11.369  21.671   8.132
31089W        W73100  20.809  17.324   8.732
31090W        W73101   1.929  23.271   1.718
31091W        W73102  24.779  25.521   9.762
31092W        W73103  11.669  10.844  10.072
31093W        W73104   5.079  14.384   9.702
31094W        W73105   3.749   6.414  11.232
31095W        W73106  24.399  18.404   3.272
31096W        W73107   0.589  25.241   2.368
31097W        W73108  10.209  12.634   5.162
31098W        W73109   6.049  22.721  10.882
31099W        W73110   9.839   7.704   1.858
31100W        W73111  16.299   1.024   0.178
31101W        W73112  13.119  24.691   8.742
31102W        W73113   0.809  22.071  11.892
31103W        W73114   2.339  14.984   9.942
31104W        W73115  13.329   6.134   9.112
31105W        W73116   6.059   9.104   8.652
31106W        W73117   0.969  24.411   3.002
31107W        W73118  23.099   1.484   1.988
31108W        W73119   2.529  15.054  12.102
31109W        W73120   1.559  22.561  10.712
31110W        W73121   2.619   9.234   2.592
31111W        W73122  17.559  25.211   1.688
31112W        W73123   8.899   6.184   3.012
31113W        W73124   1.789  13.564   7.482
31114W        W73125   1.449   8.804   9.822
31115W        W73126  20.429   8.374  15.862
31116W        W73127  13.669  21.551   2.458
31117W        W73128  24.359  14.034   3.302
31118W        W73129  15.639  10.504  15.652
31119W        W73130  10.879  18.364  15.422
31120W        W73131   2.179  14.084   9.772
31121W        W73132  12.309   0.774   1.148
31122W        W73133  15.859   5.674   2.138
31123W        W73134  19.249  12.624  15.722
31124W        W73135  20.659  11.444   3.802
31125W        W73136  23.049  23.761   1.028
31126W        W73137  15.209  21.064   9.092
31127W        W73138  10.009  11.034  10.232
31128W        W73139  20.229  11.304   8.082
31129W        W73140   7.299   2.604  14.962
31130W        W73141  13.389  16.584   9.062
31131W        W73142   3.119  10.864   3.202
31132W        W73143   4.189  12.484   0.148
31133W        W73144  14.729   6.274  15.282
31134W        W73145   4.919  23.261  11.542
31135W        W73146  17.759  13.184   1.198
31136W        W73147   4.329  19.814   0.998
31137W        W73148  10.529  21.531   9.162
31138W        W73149  23.249   5.164   0.018
31139W        W73150   0.729   6.894  11.742
31140W        W73151  21.539   5.494   1.698
31141W        W73152  20.679   0.684   1.948
31142W        W73153  19.769   5.764   3.012
31143W        W73154   3.829   2.804   8.992
31144W        W73155  21.649  23.321   4.002
31145W        W73156  11.499   6.884   0.638
31146W        W73157   5.319  16.864  11.242
31147W        W73158  12.589  17.524  10.422
31148W        W73159   1.679  19.754   9.432
31149W        W73160   3.929  14.674   9.692
31150W        W73161  24.779   2.924   8.632
31151W        W73162  13.029  12.274   2.198
31152W        W73163  13.369   6.294   8.142
31153W        W73164  22.579  13.484   8.112
31154W        W73165  24.849  12.284   1.048
31155W        W73166  11.619  20.494  10.242
31156W        W73167   4.239   1.594   1.668
31157W        W73168  11.769  14.454  15.232
31158W        W73169   0.469  23.481  11.762
31159W        W73170  13.199   2.194  11.442
31160W        W73171   2.409   1.384   3.732
31161W        W73172  22.669  10.754   3.332
31162W        W73173   6.229  17.444   3.192
31163W        W73174  15.999  25.341   9.472
31164W        W73175  12.179   7.514   0.058
31165W        W73176   6.949   4.094   3.372
31166W        W73177  18.079  17.334  10.632
31167W        W73178   5.089  17.414   9.932
31168W        W73179   0.769   0.164   7.852
31169W        W73180  22.659   7.284   2.008
31170W        W73181   7.799   4.724   1.018
31171W        W73182   6.259  17.054  11.762
31172W        W73183   0.349  20.634   8.372
31173W        W73184  24.019   4.444  10.972
31174W        W73185   0.829  12.584   0.128
31175W        W73186   6.609   7.444  15.532
31176W        W73187  14.059   1.954  15.282
31177W        W73188  20.009   8.484   3.172
31178W        W73189  19.119  11.934   0.418
31179W        W73190  18.039  10.504   7.622
31180W        W73191  14.839  19.654   3.642
31181W        W73192   8.929   7.044  15.342
31182W        W73193  15.279   6.764  15.712
31183W        W73194   4.329  20.044  10.702
31184W        W73195  20.889   8.544  15.562
31185W        W73196   8.609  23.021  14.942
31186W        W73197   3.899   6.024   0.188
31187W        W73198  11.149  17.784   2.542
31188W        W73199   9.939  13.844   1.168
31189W        W73200   0.939   7.914   7.322
31190W        W73201   3.539   3.534   9.562
31191W        W73202  22.609   3.204   8.092
31192W        W73203   8.239  13.454  15.282
31193W        W73204  25.469   5.194   1.648
31194W        W73205   4.139   5.524  10.732
31195W        W73206  11.019  15.864   3.072
31196W        W73207   1.749   7.504   8.622
31197W        W73208  21.389  12.554   2.498
31198W        W73209  22.969   9.874   0.928
31199W        W73210   0.789  10.374   9.522
31200W        W73211  14.529   3.004  10.842
31201W        W73212  23.669  12.164  12.092
31202W        W73213   7.519   5.414   7.992
31203W        W73214   7.429   7.354   2.802
31204W        W73215   6.539  14.634   4.492
31205W        W73216   6.049  13.904   1.118
31206W        W73217  11.919  16.934   4.622
31207W        W73218   1.119  25.401  11.692
31208W        W73219  24.849  11.254   0.608
31209W        W73220  11.349   9.924   3.952
31210W        W73221  19.819  14.954   0.748
31211W        W73222   6.999  25.121   0.848
31212W        W73223  18.269  10.054   8.372
31213W        W73224  13.779  19.524   1.968
31214W        W73225  13.169  13.964  15.212
31215W        W73226  19.009  22.121   2.722
31216W        W73227   2.209   1.224   1.458
31217W        W73228  18.809  13.024   8.822
31218W        W73229   1.229  14.764  10.302
31219W        W73230   4.009   9.894   2.762
31220W        W73231  25.309  21.224  12.442
31221W        W73232  18.369  22.651  10.572
31222W        W73233  25.139  16.164   1.428
31223W        W73234  10.469  15.714   9.532
31224W        W73235   2.849  23.931   9.742
31225W        W73236   4.669   8.954  15.072
31226W        W73237   5.829  22.741  14.642
31227W        W73238  11.739  16.154   1.988
31228W        W73239   0.859  18.994   0.558
31229W        W73240  24.619   8.804   8.832
31230W        W73241  20.789  13.244  10.212
31231W        W73242  14.669  15.284   0.028
31232W        W73243   5.249  13.264   3.332
31233W        W73244  20.219   4.284   0.398
31234W        W73245  10.649   1.614   0.408
31235W        W73246  24.909   4.724  11.702
31236W        W73247  19.019   0.504  11.782
31237W        W73248   5.149  20.034  15.752
31238W        W73249  12.439   6.134  14.452
31239W        W73250   9.149  14.294  10.002
31240W        W73251   9.689  23.981   9.842
31241W        W73252   3.469   9.904   2.018
31242W        W73253   6.399  25.451   7.982
31243W        W73254   6.329  14.094   9.342
31244W        W73255  17.359   0.104   8.082
31245W        W73256  14.319   2.254   8.432
31246W        W73257  22.109  22.131  15.572
31247W        W73258  19.239  18.444   1.208
31248W        W73259   6.979  13.664   9.262
31249W        W73260   2.049  18.374   0.998
31250W        W73261  16.859  22.501   1.908
31251W        W73262  13.769  17.764  11.202
31252W        W73263   3.189  15.544   9.142
31253W        W73264   4.349   9.644  10.162
31254W        W73265  16.699  24.221   9.562
31255W        W73266  15.269   9.024   9.912
31256W        W73267  22.579  21.461   3.402
31257W        W73268  22.189  19.794  10.102
31258W        W73269  24.379   9.474  15.672
31259W        W73270  12.299  23.571   3.652
31260W        W73271   1.159  15.634   0.028
31261W        W73272   1.469   7.574   6.482
31262W        W73273   8.989   3.584   8.662
31263W        W73274  17.679  22.091   2.458
31264W        W73275   4.179  14.404  10.072
31265W        W73276  13.739  23.951   0.518
31266W        W73277   1.429  20.354   8.602
31267W        W73278  23.959   6.954   1.218
31268W        W73279  21.169  10.074  10.052
31269W        W73280  23.229   0.024   8.702
31270W        W73281   9.379  17.234   2.088
31271W        W73282  21.399  22.191  10.392
31272W        W73283   0.059  17.964   0.868
31273W        W73284   5.949   8.484  10.542
31274W        W73285  11.789   2.634   2.298
31275W        W73286  18.549  15.334   4.542
31276W        W73287  11.319   1.684   8.862
31277W        W73288  22.609  15.614  10.202
31278W        W73289  17.109  23.181   0.308
31279W        W73290  20.759  12.394  10.782
31280W        W73291   2.359   0.284  10.492
31281W        W73292  25.259   1.884   9.792
31282W        W73293   2.639   9.334   1.988
31283W        W73294  17.299   8.624   7.732
31284W        W73295  11.639   5.104   9.062
31285W        W73296  19.749   5.674   9.852
31286W        W73297   1.739  17.274   3.452
31287W        W73298   2.609  23.911   2.722
31288W        W73299   7.919  13.354  15.712
31289W        W73300  21.079   5.004   1.298
31290W        W73301   3.169  16.884  11.062
31291W        W73302   4.399  17.624   3.052
31292W        W73303  15.299   2.134   0.198
31293W        W73304   7.969  15.404   0.708
31294W        W73305  25.499  13.594   2.358
31295W        W73306   9.309  20.674   2.468
31296W        W73307   2.789  16.234   0.758
31297W        W73308  24.179  22.921   8.132
31298W        W73309  15.699   3.904   9.792
31299W        W73310   3.029  17.354   2.268
31300W        W73311  11.859  14.044  10.722
31301W        W73312  13.509  22.471   4.832
31302W        W73313  21.419  21.591  11.702
31303W        W73314  14.169  11.754  10.022
31304W        W73315   2.179  12.394  11.542
31305W        W73316   3.519  16.424  11.882
31306W        W73317  14.429  17.434  14.192
31307W        W73318  21.599   1.574   3.162
31308W        W73319   9.989   0.894   9.552
31309W        W73320  24.889   6.604   3.682
31310W        W73321   1.469  18.594   8.502
31311W        W73322   6.459  14.994   2.198
31312W        W73323  21.919  17.634   0.278
31313W        W73324  14.029  24.911   8.962
31314W        W73325  21.219   0.814  10.912
31315W        W73326   4.619   3.674  15.102
31316W        W73327  11.769   1.504   9.882
31317W        W73328   1.359  23.981   3.952
31318W        W73329  13.409  18.074   2.298
31319W        W73330  14.189  13.844  15.812
31320W        W73331  21.029  19.754   2.028
31321W        W73332  23.769  10.954   9.462
31322W        W73333   7.219  12.054   2.368
31323W        W73334   1.379   2.054   9.882
31324W        W73335  16.319  21.084  10.492
31325W        W73336   0.839  13.734  11.282
31326W        W73337  20.159  14.764  10.802
31327W        W73338  19.809   5.334  10.432
31328W        W73339   0.799   8.234   0.038
31329W        W73340   3.729  18.094  15.492
31330W        W73341  18.069  14.104   9.282
31331W        W73342  21.199  20.534   2.268
31332W        W73343   5.499  15.334   3.632
31333W        W73344   4.419  11.484   8.132
31334W        W73345  17.699   3.394   8.762
31335W        W73346  10.849  16.144   2.318
31336W        W73347   8.849  19.644   2.078
31337W        W73348  10.249  24.241  10.942
31338W        W73349   8.749  14.904  15.362
31339W        W73350  16.189  21.294   0.018
31340W        W73351  15.549  10.674   1.438
31341W        W73352   9.769  20.254   5.102
31342W        W73353  17.039  14.684   0.798
31343W        W73354   4.889   0.154  15.842
31344W        W73355  12.909  22.641   4.142
31345W        W73356   5.959   3.464  15.622
31346W        W73357  18.259   8.344   9.902
31347W        W73358   2.289   5.584   2.862
31348W        W73359  21.049  14.944   4.382
31349W        W73360   4.529  12.494   2.752
31350W        W73361  22.199  21.981  10.122
31351W        W73362   3.709  24.871   2.632
31352W        W73363   3.759  17.334   1.028
31353W        W73364  18.499   1.614   8.122
31354W        W73365  24.919   4.044   1.658
31355W        W73366  23.869   1.014   7.862
31356W        W73367  18.529   3.764   1.928
31357W        W73368  15.309   8.164   3.272
31358W        W73369  11.019   5.224   2.922
31359W        W73370  19.989   9.164  10.092
31360W        W73371  18.699   4.244   1.468
31361W        W73372  15.259  21.354   0.898
31362W        W73373   4.049   7.584   7.592
31363W        W73374  10.369  18.444   1.168
31364W        W73375   0.699  10.384  10.762
31365W        W73376   0.429  13.184  11.822
31366W        W73377  22.209  22.011   0.448
31367W        W73378   3.539   8.014   7.852
31368W        W73379  13.329  11.694   9.582
31369W        W73380  20.469  14.504   9.642
31370W        W73381  17.369  15.174   3.122
31371W        W73382  10.529  16.954   2.208
31372W        W73383   4.309   5.364   9.852
31373W        W73384   8.179  17.774   2.522
31374W        W73385  24.289  15.204   8.922
31375W        W73386  15.609  18.944  10.832
31376W        W73387  19.579   5.194   9.122
31377W        W73388   2.579  14.424   2.458
31378W        W73389  15.749  13.574  10.582
31379W        W73390  15.309  22.131   9.792
31380W        W73391   7.139   6.254   8.342
31381W        W73392  11.009  20.994  10.292
31382W        W73393   9.359   1.024   8.282
31383W        W73394   9.759   0.414   0.748
31384W        W73395   0.269   4.364   0.408
31385W        W73396   7.349  24.331  15.852
31386W        W73397   5.959   0.324   8.552
31387W        W73398  23.669   4.494   0.978
31388W        W73399  23.479  18.454   9.122
31389W        W73400  25.099  24.131   1.968
31390W        W73401   0.269  20.934   0.298
31391W        W73402  21.429  12.324   9.702
31392W        W73403  21.229   5.174   9.492
31393W        W73404  10.889   2.224   8.462
31394W        W73405  10.069   7.514  14.402
31395W        W73406   7.499   2.954   1.628
31396W        W73407  10.499  18.874  10.262
31397W        W73408   0.819  10.064   7.252
31398W        W73409   7.219   0.954   2.552
31399W        W73410  24.069   1.094   8.552
31400W        W73411  13.929   3.794   2.488
31401W        W73412   1.519   8.714   2.478
31402W        W73413  14.839  19.774   2.308
31403W        W73414  23.639  22.341  10.912
31404W        W73415   4.369   0.744   1.608
31405W        W73416  18.469  12.734   9.522
31406W        W73417  24.509   7.324   7.522
31407W        W73418  23.869   8.044   7.912
31408W        W73419  20.399  25.111   7.552
31409W        W73420  16.509  17.454   9.792
31410W        W73421  17.689   9.714   3.722
31411W        W73422  15.029  12.314   3.662
31412W        W73423   7.219  16.964   9.732
31413W        W73424  23.559   4.514  15.442
31414W        W73425  16.369  13.544  10.792
31415W        W73426  11.659  20.634   2.872
31416W        W73427   0.379  13.954   0.368
31417W        W73428   9.589  14.134   1.888
31418W        W73429   0.329   2.704  11.912
31419W        W73430  17.609  15.944   2.942
31420W        W73431   8.949  15.324   1.128
31421W        W73432  16.589  17.954   3.372
31422W        W73433  15.719  13.074   0.548
31423W        W73434  11.589   0.994   8.202
31424W        W73435  22.569   8.284   1.848
31425W        W73436   5.989   6.454   7.802
31426W        W73437  19.779  17.164  11.292
31427W        W73438   7.329  21.671  11.792
31428W        W73439  23.319  17.974   9.472
31429W        W73440  19.439  10.004  11.272
31430W        W73441   2.129  20.544   0.738
31431W        W73442  17.339   3.734   9.552
31432W        W73443   0.259   8.054   2.248
31433W        W73444   5.099  13.574   9.172
31434W        W73445  23.399   2.004   9.922
31435W        W73446  22.669  17.734  10.532
31436W        W73447  15.729  16.734   1.728
31437W        W73448  17.399  17.074   8.422
31438W        W73449  11.999   3.834   1.608
31439W        W73450   9.109   6.374  10.662
31440W        W73451  18.809  10.124  15.302
31441W        W73452   1.799  23.181   1.028
31442W        W73453  16.999   5.404   4.652
31443W        W73454  25.089   0.504   2.932
31444W        W73455   1.509   8.484  15.572
31445W        W73456   1.189   5.754   8.782
31446W        W73457  18.279  23.301   8.042
31447W        W73458   6.649   8.164   0.498
31448W        W73459  20.249  24.061   2.238
31449W        W73460  11.069  20.674   0.528
31450W        W73461  25.329   7.914  10.682
31451W        W73462   9.599   9.984   4.462
31452W        W73463  18.589   2.574   3.242
31453W        W73464  17.279  20.004   2.068
31454W        W73465  18.579  10.714  10.032
31455W        W73466   9.379   4.184   0.418
31456W        W73467  14.339   6.794   1.758
31457W        W73468  20.119  10.184   0.768
31458W        W73469   5.329   9.524  10.502
31459W        W73470  11.019   0.724   3.552
31460W        W73471   0.499  12.524  12.502
31461W        W73472  18.119  18.764  10.852
31462W        W73473  20.669  17.524   4.072
31463W        W73474  19.989   6.184   0.718
31464W        W73475  12.149  19.054   1.118
31465W        W73476  25.149  15.754  15.302
31466W        W73477   1.899   3.174   6.842
31467W        W73478  17.259   7.974   8.312
31468W        W73479   3.309   5.744  10.682
31469W        W73480   6.939  25.241   8.842
31470W        W73481   1.199  17.724   1.298
31471W        W73482  20.939   4.674   0.578
31472W        W73483   1.009  22.911   9.452
31473W        W73484   4.639   6.194   9.392
31474W        W73485   9.159  14.064   0.668
31475W        W73486  24.189  23.751  11.592
31476W        W73487   4.389  18.564   9.682
31477W        W73488   4.989  13.484  11.442
31478W        W73489  18.819  23.331   3.372
31479W        W73490  21.049   7.684   0.148
31480W        W73491  15.289  13.074   9.762
31481W        W73492  22.539  12.264   0.448
31482W        W73493  23.609  13.824   1.598
31483W        W73494   5.909   8.714   0.838
31484W        W73495  18.539   8.564   2.622
31485W        W73496   5.909   7.664   8.422
31486W        W73497   7.379  22.011  10.912
31487W        W73498  16.119  11.674   4.002
31488W        W73499  21.339  10.174   3.272
31489W        W73500   7.669   0.654   8.862
31490W        W73501  21.579  10.594  10.392
31491W        W73502   0.419  19.604   0.898
31492W        W73503   1.509   8.884   3.292
31493W        W73504   8.329  12.394   9.782
31494W        W73505   0.079  10.564   0.298
31495W        W73506   2.509   1.864   3.002
31496W        W73507  24.659   3.564  10.382
31497W        W73508   6.699  13.334  10.032
31498W        W73509   7.449  21.184   1.848
31499W        W73510   1.179   9.094   2.278
31500W        W73511  12.999   4.964   2.118
31501W        W73512  21.749  12.024   7.822
31502W        W73513   3.889  25.511   1.218
31503W        W73514   3.579   7.434  15.842
31504W        W73515  23.049   0.784   1.708
31505W        W73516  21.619   4.334   7.772
31506W        W73517  24.019  25.251  11.332
31507W        W73518  16.849  13.744   0.878
31508W        W73519  11.999  12.454   2.328
31509W        W73520   4.279  23.961  15.672
31510W        W73521   6.589  13.244   2.772
31511W        W73522   6.369  23.071   2.498
31512W        W73523  12.259   2.064   1.238
31513W        W73524   2.139   8.634   7.902
31514W        W73525  15.159   6.684   3.842
31515W        W73526  19.739  22.831   3.572
31516W        W73527   0.749  24.761   8.132
31517W        W73528   4.979  21.561   8.462
31518W        W73529  14.189  23.801   1.368
31519W        W73530  13.249   4.694  10.662
31520W        W73531  17.099  12.754   9.552
31521W        W73532  13.079  25.421   8.272
31522W        W73533  16.909  15.184  10.192
31523W        W73534   9.799  19.194  15.542
31524W        W73535   5.939  24.071   9.832
31525W        W73536  19.459  10.044   0.508
31526W        W73537   8.289   5.034   1.678
31527W        W73538  20.609   7.004   9.472
31528W        W73539   7.549  18.444   4.102
31529W        W73540   5.559   8.004  11.362
31530W        W73541  11.269  20.734   5.182
31531W        W73542  18.989  17.284   2.238
31532W        W73543   0.949   8.954  15.662
31533W        W73544  24.309  11.224  10.082
31534W        W73545  20.789  11.454  10.942
31535W        W73546  11.709   6.374   2.358
31536W        W73547  19.929  14.434   8.672
31537W        W73548  14.759  10.064   2.378
31538W        W73549  20.409  16.484   0.058
31539W        W73550   7.209   9.084   2.752
31540W        W73551  19.999   7.354  14.992
31541W        W73552   3.399   8.174   1.318
31542W        W73553  11.669   9.134   9.982
31543W        W73554  23.069   6.964   0.868
31544W        W73555  11.669   2.414   4.142
31545W        W73556   3.469   5.204   2.552
31546W        W73557  10.089  25.171  10.322
31547W        W73558  14.429  16.444  10.362
31548W        W73559   3.499   1.474   0.228
31549W        W73560  21.169  13.934   7.962
31550W        W73561   3.549  13.624   9.602
31551W        W73562   8.419  23.761  10.682
31552W        W73563  16.799  15.994   4.002
31553W        W73564  17.599   9.334   1.448
31554W        W73565   1.529   8.214   2.552
31555W        W73566  17.459  11.644   0.158
31556W        W73567   2.829  24.851  10.162
31557W        W73568  13.829   2.284   1.908
31558W        W73569  25.479   2.414   4.182
31559W        W73570  21.649  14.684   9.402
31560W        W73571  21.849  11.084  15.642
31561W        W73572  16.439  15.224  11.092
31562W        W73573  18.439   2.794   1.878
31563W        W73574  20.559   7.504  11.812
31564W        W73575   4.609  12.844  11.102
31565W        W73576   7.579   0.034   1.448
31566W        W73577   1.979  13.134  10.942
31567W        W73578  18.229  15.924   3.372
31568W        W73579  21.839  21.391   2.188
31569W        W73580  23.779   1.504   7.822
31570W        W73581   6.789   9.784   8.972
31571W        W73582  23.389  15.084   1.078
31572W        W73583   0.259  24.231   9.292
31573W        W73584   4.569   3.514   8.432
31574W        W73585  22.169  17.804   4.142
31575W        W73586   6.069   3.764   2.368
31576W        W73587  22.429  10.004  15.222
31577W        W73588  19.779   0.534   9.972
31578W        W73589  11.899   6.084   0.308
31579W        W73590  22.099  15.604   2.118
31580W        W73591  17.609  13.514   2.268
31581W        W73592  17.189  19.704   8.642
31582W        W73593  16.169  19.924   3.402
31583W        W73594  21.009   1.444   1.478
31584W        W73595  24.049   9.394   9.882
31585W        W73596  24.419  16.364  15.582
31586W        W73597  10.979  21.334   0.598
31587W        W73598   3.529  23.121   8.202
31588W        W73599  13.789  20.354   1.838
31589W        W73600  24.219   3.844  10.262
31590W        W73601  20.319   5.184  10.912
31591W        W73602  15.579  15.304   2.188
31592W        W73603  12.689  16.314   1.578
31593W        W73604   2.259  15.154   2.722
31594W        W73605  23.349  10.194   7.402
31595W        W73606  16.809  20.824   3.432
31596W        W73607   1.749   3.324  11.242
31597W        W73608  11.789   1.284  10.702
31598W        W73609   1.239  16.394   3.292
31599W        W73610  13.629   7.724  14.802
31600W        W73611  21.419   9.314   1.198
31601W        W73612  24.559  17.954  10.782
31602W        W73613   0.979  11.894  12.002
31603W        W73614  13.549  15.204   8.802
31604W        W73615   6.299  17.004   9.062
31605W        W73616   8.629  11.804  15.562
31606W        W73617   0.709  17.114   0.678
31607W        W73618  10.779  21.971   9.282
31608W        W73619   6.859  12.974   1.958
31609W        W73620   1.339  17.844   7.932
31610W        W73621   3.419  13.654  15.612
31611W        W73622  10.759   4.674   0.678
31612W        W73623   6.369  17.124   3.902
31613W        W73624   4.889  22.071   2.552
31614W        W73625   5.189   9.804   7.782
31615W        W73626   6.879   2.704  10.092
31616W        W73627  24.039  21.481  11.182
31617W        W73628   5.089   9.564   1.318
31618W        W73629   0.149   6.144   1.018
31619W        W73630   5.329   7.874   9.652
31620W        W73631   9.139   3.744   9.562
31621W        W73632   6.719  20.084   4.442
31622W        W73633  12.469  13.204  14.572
31623W        W73634  14.669  20.064   9.692
31624W        W73635  10.759  16.194   0.228
31625W        W73636  17.139   9.304   1.598
31626W        W73637  19.249  13.474   2.532
31627W        W73638   6.829  20.404   1.108
31628W        W73639  23.709  19.784   9.732
31629W        W73640   2.889   2.064  11.252
31630W        W73641   7.959   9.544   8.572
31631W        W73642  19.559   0.874   2.672
31632W        W73643  12.819  25.071   8.782
31633W        W73644   0.899   9.054   0.328
31634W        W73645  13.809  21.961   0.198
31635W        W73646   9.309   2.744   4.002
31636W        W73647  22.229   6.974   0.538
31637W        W73648  14.319  21.891   3.232
31638W        W73649  13.139  21.541   9.172
31639W        W73650   5.449  16.794   0.018
31640W        W73651  20.329  11.754   7.852
31641W        W73652  17.869   7.684  10.252
31642W        W73653  21.659   1.154   2.642
31643W        W73654  13.969  10.034  15.202
31644W        W73655   4.889   3.134  10.832
31645W        W73656  15.659  16.324   1.348
31646W        W73657  13.499   9.744  15.032
31647W        W73658  11.359  15.594  15.302
31648W        W73659   5.159   4.874   9.832
31649W        W73660  13.019  22.001   9.012
31650W        W73661  20.379   9.234   8.222
31651W        W73662   9.339  24.981   3.362
31652W        W73663  16.079  15.714   0.948
31653W        W73664  21.749  25.281  10.402
31654W        W73665  18.479   7.184   8.032
31655W        W73666  10.669   6.584   2.882
31656W        W73667   2.639   2.804   9.472
31657W        W73668  11.179  24.021   8.992
31658W        W73669  17.629  17.134  11.432
31659W        W73670  12.339  15.414   3.042
31660W        W73671   2.339   1.924   0.678
31661W        W73672  11.279  10.534  14.512
31662W        W73673  17.519   0.054   0.868
31663W        W73674  14.609   6.184   2.902
31664W        W73675   0.809  16.044   0.418
31665W        W73676  18.439   7.444  10.392
31666W        W73677  24.619  25.071   8.472
31667W        W73678   6.099  12.184   1.658
31668W        W73679  23.319  14.744   3.142
31669W        W73680  18.919  12.884   9.362
31670W        W73681   6.289  13.314   3.142
31671W        W73682  16.709  12.584   4.412
31672W        W73683   0.549  23.431   3.702
31673W        W73684  22.949  16.764   3.412
31674W        W73685   0.939  13.734   2.498
31675W        W73686  12.259  19.984   0.808
31676W        W73687   9.579  12.904   0.508
31677W        W73688  18.119  20.364  10.102
31678W        W73689   5.589   6.244   0.758
31679W        W73690  20.159  15.304   2.008
31680W        W73691  25.259  24.891   2.532
31681W        W73692  20.349   9.104   3.892
31682W        W73693   7.749  22.861   4.662
31683W        W73694  21.639  15.254   2.772
31684W        W73695   5.199  19.664   0.258
31685W        W73696  13.599  22.501   9.072
31686W        W73697   0.569  19.604   8.672
31687W        W73698   1.599   1.674  11.362
31688W        W73699  24.089   0.604   8.732
31689W        W73700  24.969  23.801   8.372
31690W        W73701  20.269  12.744   8.962
31691W        W73702   9.589   3.274   0.958
31692W        W73703  14.299   3.804   2.228
31693W        W73704  11.749   2.694  10.822
31694W        W73705   0.739  20.704  12.172
31695W        W73706  22.479  13.284   0.258
31696W        W73707  22.379   7.764   2.812
31697W        W73708   8.939   4.574   2.308
31698W        W73709  25.039  24.301   2.732
31699W        W73710  21.559   6.394  10.062
31700W        W73711  15.959  21.711   2.582
31701W        W73712  17.049   1.964   9.802
31702W        W73713   4.589  10.554   1.408
31703W        W73714   6.519   9.124  10.262
31704W        W73715  21.909  10.084   0.068
31705W        W73716  14.689   2.974  15.702
31706W        W73717  13.249   8.614   0.678
31707W        W73718   9.129  11.124  10.942
31708W        W73719  23.259  18.944   2.782
31709W        W73720  12.439   1.394  10.482
31710W        W73721   5.649   3.904  10.132
31711W        W73722   2.379  11.204   2.842
31712W        W73723   2.589  25.471   3.382
31713W        W73724  23.309  24.771   9.732
31714W        W73725  24.069  17.354  10.292
31715W        W73726   1.259   5.264   9.212
31716W        W73727   3.759   3.224   2.158
31717W        W73728  18.179   8.494   0.468
31718W        W73729   5.829  19.524   2.438
31719W        W73730  16.089  10.854   2.448
31720W        W73731   4.719  17.234   9.192
31721W        W73732   5.669   6.684  10.872
31722W        W73733  13.359  22.621  10.502
31723W        W73734  12.769   4.734   1.568
31724W        W73735  20.609  15.894  10.902
31725W        W73736  14.769   6.764  15.472
31726W        W73737  14.869  15.084   3.402
31727W        W73738  21.419   1.894   8.312
31728W        W73739  24.599  21.234   1.478
31729W        W73740  25.139  13.174  10.202
31730W        W73741   3.399   2.614   9.232
31731W        W73742  25.429  20.254  11.382
31732W        W73743  16.869   4.194   0.528
31733W        W73744  19.099  19.524   9.692
31734W        W73745   9.159  25.511   9.522
31735W        W73746   5.179   0.064   0.808
31736W        W73747  18.599  11.234   3.752
31737W        W73748  24.209   3.844   1.098
31738W        W73749   6.449  12.424   7.812
31739W        W73750  20.699  23.691  10.302
31740W        W73751  12.449   2.664   8.052
31741W        W73752   3.659  24.301   1.398
31742W        W73753  19.949   0.664   9.112
31743W        W73754   7.849  21.244  15.702
31744W        W73755  25.509  17.304  10.862
31745W        W73756   3.939   4.764  15.702
31746W        W73757   0.169  24.531   1.228
31747W        W73758  16.099   7.494   9.622
31748W        W73759  15.299  12.154   1.858
31749W        W73760  13.789   0.274   9.902
31750W        W73761   5.439  15.024   0.528
31751W        W73762  22.249  18.444   0.778
31752W        W73763  22.169  17.584  11.402
31753W        W73764  12.679   9.774   2.602
31754W        W73765  23.369   3.094  10.152
31755W        W73766   5.039  19.934   0.618
31756W        W73767  19.169   5.084   3.142
31757W        W73768  21.429   9.684   2.672
31758W        W73769  12.699  18.604   3.772
31759W        W73770  17.349  14.374   0.478
31760W        W73771  14.699   7.914   3.892
31761W        W73772   2.659  20.684   1.528
31762W        W73773  23.559   9.384   9.742
31763W        W73774   7.519  10.084  10.392
31764W        W73775   6.199  19.744   3.422
31765W        W73776  14.739   4.934   3.042
31766W        W73777  20.379  17.644   7.872
31767W        W73778   9.199  21.381  11.352
31768W        W73779  12.939   8.794   9.802
31769W        W73780   0.769  17.904   8.912
31770W        W73781   7.419   5.024   0.848
31771W        W73782  17.919  19.844   2.188
31772W        W73783  11.949  12.384  14.882
31773W        W73784  25.049  20.134   8.692
31774W        W73785  21.879  19.604  10.552
31775W        W73786  25.379   2.244   9.012
31776W        W73787  23.609  19.694   0.108
31777W        W73788   7.339   4.644   1.168
31778W        W73789   1.319  15.224  11.812
31779W        W73790  17.629  17.344   9.242
31780W        W73791  11.649  25.501   1.398
31781W        W73792  20.729   8.594   9.832
31782W        W73793  25.159  12.504   1.788
31783W        W73794  13.749   4.454   1.918
31784W        W73795  11.129  22.921   9.472
31785W        W73796  12.919   2.114   4.002
31786W        W73797   3.869  21.711  10.122
31787W        W73798   4.589   4.104   2.118
31788W        W73799  25.299  14.534   0.638
31789W        W73800  19.929  24.841   7.822
31790W        W73801  11.889  12.264   2.952
31791W        W73802  13.649   9.154   2.018
31792W        W73803  22.259  21.164   1.118
31793W        W73804  17.619   7.334   0.568
31794W        W73805  17.749  24.391   8.392
31795W        W73806  17.179  12.074  15.102
31796W        W73807  22.439  20.794   0.538
31797W        W73808  12.459   7.124   2.258
31798W        W73809   9.159  16.594   3.372
31799W        W73810  13.599   8.524   0.238
31800W        W73811   6.819   6.944  15.452
31801W        W73812  12.439  10.154  14.232
31802W        W73813  18.649   8.444   3.442
31803W        W73814  14.079  16.244   4.232
31804W        W73815  20.879  19.654  10.572
31805W        W73816   3.689   6.574   9.232
31806W        W73817   3.029   7.994  11.442
31807W        W73818  24.459  12.324   9.312
31808W        W73819   5.479  20.794   3.282
31809W        W73820  25.239   2.284  10.682
31810W        W73821   9.839   8.414   9.942
31811W        W73822   7.169  24.661   2.058
31812W        W73823  20.769   2.404   8.822
31813W        W73824   8.929   8.914   0.828
31814W        W73825  25.049  19.214  11.162
31815W        W73826   4.079  11.584  10.522
31816W        W73827   6.889  19.404   3.752
31817W        W73828   6.049  13.124  15.792
31818W        W73829  17.979  19.774  10.782
31819W        W73830   4.789  23.561  10.642
31820W        W73831  10.799  13.774   3.832
31821W        W73832   0.719  22.031   4.332
31822W        W73833  24.629  13.404   2.612
31823W        W73834  23.689   0.944   9.932
31824W        W73835  12.369   3.124  15.872
31825W        W73836  24.739  11.624   0.118
31826W        W73837   2.169   3.984   8.102
31827W        W73838  16.009   8.584   3.632
31828W        W73839   3.569  22.101   0.208
31829W        W73840  11.419  24.411   0.488
31830W        W73841  22.849   0.134   8.072
31831W        W73842   6.699   5.564  15.672
31832W        W73843  12.029  13.354  13.712
31833W        W73844  11.269   4.574   0.808
31834W        W73845  10.589   7.914   2.512
31835W        W73846   8.399  19.704   0.158
31836W        W73847   2.929   8.474   2.208
31837W        W73848   7.439  18.664  14.782
31838W        W73849  24.099  10.624   2.008
31839W        W73850   1.539   4.614   8.592
31840W        W73851   2.609  16.934   8.832
31841W        W73852  19.149  12.084   9.092
31842W        W73853   8.439  16.494   8.832
31843W        W73854  23.909   8.114   1.888
31844W        W73855  10.399  25.291   2.068
31845W        W73856   4.059  11.394   2.368
31846W        W73857  15.489  23.861  11.362
31847W        W73858  22.859   6.054   2.702
31848W        W73859  16.629  10.044  14.552
31849W        W73860  20.709  17.904   3.642
31850W        W73861  16.479  20.114  11.722
31851W        W73862   9.349  15.394   3.702
31852W        W73863   6.129   9.664   1.088
31853W        W73864   0.529   3.104   0.078
31854W        W73865  23.919  13.924   2.922
31855W        W73866   5.329  24.171   8.622
31856W        W73867  24.159  22.781   7.602
31857W        W73868   4.239  14.104   7.832
31858W        W73869  17.019  17.974   9.072
31859W        W73870   5.869   1.144   2.408
31860W        W73871  19.879  11.494   3.132
31861W        W73872  15.959  16.844   2.702
31862W        W73873  17.469   1.334  15.622
31863W        W73874   7.869  16.344   2.268
31864W        W73875   3.909  25.581   9.592
31865W        W73876  20.239  11.174  11.902
31866W        W73877   7.199  13.654  10.792
31867W        W73878  17.169  20.694  12.222
31868W        W73879  24.359   4.294   8.192
31869W        W73880  23.449   8.584   2.338
31870W        W73881   6.969   0.574   7.342
31871W        W73882  20.659   8.114   7.492
31872W        W73883   3.849  11.554   1.138
31873W        W73884   2.119   6.804   7.352
31874W        W73885  10.009  20.244   1.978
31875W        W73886   8.099  19.774   4.222
31876W        W73887   6.759   7.074   1.058
31877W        W73888  17.909   3.344   9.732
31878W        W73889  12.779   3.954   9.342
31879W        W73890   0.669   2.384   8.512
31880W        W73891   7.729  12.534  10.752
31881W        W73892  12.949   4.894   9.082
31882W        W73893  20.539   2.084   8.072
31883W        W73894   5.119  17.294   8.202
31884W        W73895  24.699   7.794   2.398
31885W        W73896  13.909   1.284   2.138
31886W        W73897   9.009   0.834  10.012
31887W        W73898  20.289  24.981   0.368
31888W        W73899   0.359  21.721   0.308
31889W        W73900  10.419  13.624   4.312
31890W        W73901  23.079   0.304   1.558
31891W        W73902  20.549  25.581  10.372
31892W        W73903   5.559  12.704   0.258
31893W        W73904   4.889  16.214   0.268
31894W        W73905   7.639  10.294   8.762
31895W        W73906  22.239  13.914   2.358
31896W        W73907  11.459  22.711  15.652
31897W        W73908  23.169  20.334   9.342
31898W        W73909  19.389   6.084   3.262
31899W        W73910  15.179   5.944   9.852
31900W        W73911  14.469   9.374   1.738
31901W        W73912  16.339  16.664   8.962
31902W        W73913   2.549  11.924   1.778
31903W        W73914   1.799  20.154   3.492
31904W        W73915  18.409  14.984   1.518
31905W        W73916   4.709  17.704  10.532
31906W        W73917   6.979  24.831  10.422
31907W        W73918   0.389  24.341   4.042
31908W        W73919  21.409  19.984   2.228
31909W        W73920  18.569  22.601   8.172
31910W        W73921   4.929  19.844   3.902
31911W        W73922  24.899  24.271   0.188
31912W        W73923  23.399  23.381  11.212
31913W        W73924  25.559   5.724  15.602
31914W        W73925  13.319  21.711   3.662
31915W        W73926   6.049   5.074  15.432
31916W        W73927   5.119  21.014  15.022
31917W        W73928  16.489  13.914   9.932
31918W        W73929  19.459  23.971   4.402
31919W        W73930  13.739  12.874   3.962
31920W        W73931   8.649  11.374   0.038
31921W        W73932  19.839  18.064   0.698
31922W        W73933  20.339  14.824   1.118
31923W        W73934  15.639   9.564   3.892
31924W        W73935   7.599   3.814   4.082
31925W        W73936   3.969  10.554   7.182
31926W        W73937   1.229  11.514   8.702
31927W        W73938   2.159  18.034   8.662
31928W        W73939  24.259  11.524  15.502
31929W        W73940   1.639   2.294  11.162
31930W        W73941  12.169  14.194   1.158
31931W        W73942   3.319  19.314   8.102
31932W        W73943   0.859  21.521   1.268
31933W        W73944  13.619  22.451   1.668
31934W        W73945  19.609  15.854   4.272
31935W        W73946  25.409   9.424  11.052
31936W        W73947   0.919   4.474   2.048
31937W        W73948   2.479   8.764   8.272
31938W        W73949  12.879  25.191  10.402
31939W        W73950  20.399   1.544   9.272
31940W        W73951  21.329  20.984   9.282
31941W        W73952   6.599   7.654  10.552
31942W        W73953  20.879  16.244   7.962
31943W        W73954  19.029   2.294  11.282
31944W        W73955  21.159  21.991   0.418
31945W        W73956   9.609   4.984   0.998
31946W        W73957   7.819  25.061   9.312
31947W        W73958   5.169   3.784  10.192
31948W        W73959   4.669  11.064  10.682
31949W        W73960   3.479   0.644   3.132
31950W        W73961   7.029  21.691   9.582
31951W        W73962   7.659  21.921   1.848
31952W        W73963  17.129  16.514   1.118
31953W        W73964  10.469   4.294   1.278
31954W        W73965  12.869  18.974   4.092
31955W        W73966  15.639  14.084  15.592
31956W        W73967   3.259  24.271   1.648
31957W        W73968  11.709   7.674  15.782
31958W        W73969   2.469  16.054   8.722
31959W        W73970   9.269  22.851   2.118
31960W        W73971   0.789   2.804   2.572
31961W        W73972   2.179  19.894   1.838
31962W        W73973   4.779   9.454   7.462
31963W        W73974  24.939   6.034   8.532
31964W        W73975  24.639  21.094  15.812
31965W        W73976   0.299   6.704   2.742
31966W        W73977  10.289   3.594   8.602
31967W        W73978   9.859   7.204   3.822
31968W        W73979   7.979   1.744  15.312
31969W        W73980   6.129   9.354  14.652
31970W        W73981  14.819  17.444   0.888
31971W        W73982  19.129   4.174  10.092
31972W        W73983   3.509  19.804  11.092
31973W        W73984   0.449  22.581   0.728
31974W        W73985   7.469  22.471   2.882
31975W        W73986   9.029   4.014   1.288
31976W        W73987   1.209  23.691   3.602
31977W        W73988  21.529   6.404   0.708
31978W        W73989   7.039  19.034   3.422
31979W        W73990   2.069  17.454  11.072
31980W        W73991  14.699  20.824   7.512
31981W        W73992  22.419  11.534   1.608
31982W        W73993  15.929  11.674   1.178
31983W        W73994  21.209  23.451   0.788
31984W        W73995  18.149   6.254  10.732
31985W        W73996  18.099  10.164  10.502
31986W        W73997  13.649   6.234  14.122
31987W        W73998   3.409  19.944   1.198
31988W        W73999  14.149   2.494   1.588
31989W        W74000   3.049   7.934   7.992
31990W        W74001   3.759  13.754   2.038
31991W        W74002  18.589  14.204   3.412
31992W        W74003   5.589  13.334   2.962
31993W        W74004  22.409  11.084   7.852
31994W        W74005  17.239   6.424   3.702
31995W        W74006  13.029   2.444   1.758
31996W        W74007   7.059  21.991   1.718
31997W        W74008   7.999  25.251   0.468
31998W        W74009   6.229  17.584  15.832
31999W        W74010  10.969  11.964   1.798
32000W        W74011  12.909  18.824   1.508
32001W        W74012  10.529  16.354   4.872
32002W        W74013  17.569  19.874   7.742
32003W        W74014  24.459  10.294   1.428
32004W        W74015   5.799   4.194  15.082
32005W        W74016  25.289  22.391  11.972
32006W        W74017  13.099   3.314   3.032
32007W        W74018  11.509  19.824  15.382
32008W        W74019   6.029  17.994   1.198
32009W        W74020  16.269  22.591   3.652
32010W        W74021   3.199   1.564   9.962
32011W        W74022   5.219  18.374  15.792
32012W        W74023  18.839   8.264   3.862
32013W        W74024  25.089   6.524   1.758
32014W        W74025  24.759   7.454  10.052
32015W        W74026  16.339   0.884   0.868
32016W        W74027  11.399  25.191   8.272
32017W        W74028  17.799   9.834   3.282
32018W        W74029  12.909  21.931   3.452
32019W        W74030  12.449  18.514   4.822
32020W        W74031  14.269  24.281   8.312
32021W        W74032  13.179  17.614   1.268
32022W        W74033   9.709  25.131   8.592
32023W        W74034   7.629   7.414  15.552
32024W        W74035   5.279  14.674   0.108
32025W        W74036   1.999   5.464  15.792
32026W        W74037  21.219  23.991  12.862
32027W        W74038   7.079   6.524   0.878
32028W        W74039  18.589  11.054   1.398
32029W        W74040  15.979  21.254   8.232
32030W        W74041  10.329  11.664   9.112
32031W        W74042   7.849   3.784  10.452
32032W        W74043  15.959  24.801   0.628
32033W        W74044  18.649   4.624  10.702
32034W        W74045  22.229  17.104   7.812
32035W        W74046   0.059   0.214  11.662
32036W        W74047   3.839  14.174   0.308
32037W        W74048   5.019   0.734   9.592
32038W        W74049   0.819   1.574   1.128
32039W        W74050  18.299  18.014   7.462
32040W        W74051  12.299  15.504   4.542
32041W        W74052  17.929   1.524   3.672
32042W        W74053  23.209   6.844  10.522
32043W        W74054  23.069   1.394  12.292
32044W        W74055  16.739  13.064   1.368
32045W        W74056   7.029   7.284   0.438
32046W        W74057   5.049   3.334   1.228
32047W        W74058  18.919  16.894   2.572
32048W        W74059  16.129  25.181   3.312
32049W        W74060  18.139   3.384   3.342
32050W        W74061  19.009  15.114  11.142
32051W        W74062  15.219  20.604   9.372
32052W        W74063   4.159   0.574   2.448
32053W        W74064  15.499   8.074  10.152
32054W        W74065  11.339  25.001   3.092
32055W        W74066  12.089  15.954  15.272
32056W        W74067  18.789   4.094   4.432
32057W        W74068  10.079  18.354   9.582
32058W        W74069  14.929  13.084   2.298
32059W        W74070  16.599  19.554  15.822
32060W        W74071  21.279   3.844   3.212
32061W        W74072   7.699  16.884   3.122
32062W        W74073  24.389   2.504  11.972
32063W        W74074   7.739  21.861   8.852
32064W        W74075  10.139  17.724   1.708
32065W        W74076  14.629  24.171   3.362
32066W        W74077  15.869  12.444   3.852
32067W        W74078  10.049   9.454   9.692
32068W        W74079  15.149   9.804  15.782
32069W        W74080   6.209  19.784  11.052
32070W        W74081  10.149  11.974  11.542
32071W        W74082   0.119  18.384   0.508
32072W        W74083  24.499  12.714  10.502
32073W        W74084  16.279  21.651   2.972
32074W        W74085  23.019   0.984   8.252
32075W        W74086  11.919   4.094   2.058
32076W        W74087  16.949   3.134   2.148
32077W        W74088  13.629  23.051   9.072
32078W        W74089  22.989   1.744  10.752
32079W        W74090   8.099  19.764   8.882
32080W        W74091   0.659  21.144   3.492
32081W        W74092  18.409   3.534  11.192
32082W        W74093   2.379  17.944   1.038
32083W        W74094  23.649   7.874   1.258
32084W        W74095  19.439  25.151   1.628
32085W        W74096   1.089  10.674   1.248
32086W        W74097  20.159   8.664   0.558
32087W        W74098  19.929  21.094  11.452
32088W        W74099  14.059   6.594   3.542
32089W        W74100  13.469   5.664   0.818
32090W        W74101  10.459   6.324   2.502
32091W        W74102  16.419  20.544   7.792
32092W        W74103  12.699   3.854  14.722
32093W        W74104   1.299   2.584   9.082
32094W        W74105  14.709  15.394   9.462
32095W        W74106  18.789  18.624   9.862
32096W        W74107  16.349   8.104   1.788
32097W        W74108   0.599   5.774   1.858
32098W        W74109   8.629  24.751   8.572
32099W        W74110  22.849   4.104   0.108
32100W        W74111   9.379  12.874  14.292
32101W        W74112  17.659   0.614   3.182
32102W        W74113  16.659   6.644  15.112
32103W        W74114   9.629  25.471   3.732
32104W        W74115   8.849   9.124  10.422
32105W        W74116   9.699  11.944  14.742
32106W        W74117   2.499  11.074  15.332
32107W        W74118   1.889   8.704  15.762
32108W        W74119  10.809  14.964   3.842
32109W        W74120   0.969   5.804   3.412
32110W        W74121  15.309  13.614   1.518
32111W        W74122  17.309   4.284   0.778
32112W        W74123   3.269   7.994   2.228
32113W        W74124   4.099  10.864   0.028
32114W        W74125   8.599  18.094   3.702
32115W        W74126  17.369  15.454   0.028
32116W        W74127  13.709   4.264   2.408
32117W        W74128   1.549  22.881   3.272
32118W        W74129  17.129   9.034   9.132
32119W        W74130   2.619   4.064   7.802
32120W        W74131   5.269  23.411   0.438
32121W        W74132  15.979   2.424   8.722
32122W        W74133   1.299  15.924  15.492
32123W        W74134  14.779   4.894  10.412
32124W        W74135  18.139  19.164   7.992
32125W        W74136  14.999   5.014  15.492
32126W        W74137  13.619   2.984   1.878
32127W        W74138   7.819   9.724   9.052
32128W        W74139  20.679  18.274   0.988
32129W        W74140   0.469  13.704  11.612
32130W        W74141   3.599  10.124   2.892
32131W        W74142   4.589  16.234   0.848
32132W        W74143   7.759  10.474   2.408
32133W        W74144  15.529  12.024   9.792
32134W        W74145   8.259  23.051   8.152
32135W        W74146  13.489  14.394   3.072
32136W        W74147   0.719   6.924  15.672
32137W        W74148   5.929   1.484   7.562
32138W        W74149  16.019   7.114   4.212
32139W        W74150  20.539   6.694   9.942
32140W        W74151  25.359  17.834   0.468
32141W        W74152   2.019  15.334  10.672
32142W        W74153  23.869   1.554   0.508
32143W        W74154  22.699   7.094  11.252
32144W        W74155  18.689   5.424   0.048
32145W        W74156  23.879  20.694   0.348
32146W        W74157  25.149   8.234  11.722
32147W        W74158  20.869  24.041   7.862
32148W        W74159  14.739  18.914   9.982
32149W        W74160  23.449   3.054   9.522
32150W        W74161  22.619  25.371   4.102
32151W        W74162  19.679  18.894   1.788
32152W        W74163   6.509  25.191   9.722
32153W        W74164  14.539   4.374  15.662
32154W        W74165   7.929  25.151   2.358
32155W        W74166   7.489  17.864   2.068
32156W        W74167   5.969   8.944   7.642
32157W        W74168   3.619  16.244   3.862
32158W        W74169  14.729  25.411   9.642
32159W        W74170  14.039  13.734   4.142
32160W        W74171   5.949   4.514   1.568
32161W        W74172  20.379   3.994   8.282
32162W        W74173   8.599  17.384  10.682
32163W        W74174  12.959  19.454   1.578
32164W        W74175  18.519   6.574   2.378
32165W        W74176  21.409  21.054   2.238
32166W        W74177  12.399   9.354   8.792
32167W        W74178  10.779   5.004   4.622
32168W        W74179   8.469  24.791   9.502
32169W        W74180  22.449  23.451  11.612
32170W        W74181  17.409   6.384   8.992
32171W        W74182   5.499  25.061   8.762
32172W        W74183   4.179   9.974   2.198
32173W        W74184   2.389  19.284   7.712
32174W        W74185  14.489  11.934   1.548
32175W        W74186   0.889   2.354   7.422
32176W        W74187  19.449  25.451   9.492
32177W        W74188   0.809   2.514   0.888
32178W        W74189   5.469   6.874   2.742
32179W        W74190  10.299   7.394   9.132
32180W        W74191  15.669  16.444   2.892
32181W        W74192   3.319   8.444   6.612
32182W        W74193  11.869   5.074   8.632
32183W        W74194  24.119  18.454   2.772
32184W        W74195  20.489   0.794  12.752
32185W        W74196  13.509   5.694  15.672
32186W        W74197   6.539   3.124   1.488
32187W        W74198  14.549   9.754   8.982
32188W        W74199   1.179  24.121   1.938
32189W        W74200  23.549   7.224  11.572
32190W        W74201  12.659  21.104   9.702
32191W        W74202  17.379   2.444   9.132
32192W        W74203  23.729  22.191   1.848
32193W        W74204   2.949  16.654   0.108
32194W        W74205  23.259  13.404  10.162
32195W        W74206   3.429  18.844   3.862
32196W        W74207   4.969   8.714   2.078
32197W        W74208   1.089  14.574  11.142
32198W        W74209  22.209  23.341   0.808
32199W        W74210   1.089  14.264   3.472
32200W        W74211   7.329  21.881   9.172
32201W        W74212   4.779   6.564   0.638
32202W        W74213  20.289   0.434   2.238
32203W        W74214  23.809  25.381   8.132
32204W        W74215  12.879  12.394   1.688
32205W        W74216  14.529  18.254   3.282
32206W        W74217  13.569  17.494   9.402
32207W        W74218   2.249   4.034   0.678
32208W        W74219  19.039   8.724  11.532
32209W        W74220   2.639   9.454  10.372
32210W        W74221  18.439  10.204  10.152
32211W        W74222  23.109  24.941   1.308
32212W        W74223   0.999  18.794   2.812
32213W        W74224  16.599  14.734  15.722
32214W        W74225   3.329   4.544  11.142
32215W        W74226  25.309   4.724  15.662
32216W        W74227   9.809  20.164   1.548
32217W        W74228  23.389  25.011  10.582
32218W        W74229  14.699  13.904   9.762
32219W        W74230   4.039  12.564   2.792
32220W        W74231   4.919   4.574  15.342
32221W        W74232   9.959   7.124   0.708
32222W        W74233   7.939  17.254   2.712
32223W        W74234  21.729  20.534   1.768
32224W        W74235  10.139   2.584  10.592
32225W        W74236  21.659   0.804   9.172
32226W        W74237   8.559  21.294  11.252
32227W        W74238  24.349  19.204   0.558
32228W        W74239  25.299  20.284   1.028
32229W        W74240  11.809   3.114   2.752
32230W        W74241  20.599  24.441   2.248
32231W        W74242   7.229  17.784   3.862
32232W        W74243   8.099  17.744   3.432
32233W        W74244  24.439  18.954   8.692
32234W        W74245   6.309  22.761   9.832
32235W        W74246   5.739  16.114  10.042
32236W        W74247   7.599   1.474   8.872
32237W        W74248  12.179   0.354   8.182
32238W        W74249  16.949  13.064   9.112
32239W        W74250  21.329   9.424   9.102
32240W        W74251  21.459  21.481   0.168
32241W        W74252   8.149  22.411   1.408
32242W        W74253  15.869   6.064  10.442
32243W        W74254  16.269   5.254   2.358
32244W        W74255  11.639  19.834   3.402
32245W        W74256   3.549  17.994  10.372
32246W        W74257   1.319  16.654   9.442
32247W        W74258  22.059  23.051  11.992
32248W        W74259  21.939   7.714   9.122
32249W        W74260  23.599  17.864   1.418
32250W        W74261  14.289   9.904   4.352
32251W        W74262  11.219  25.231   1.498
32252W        W74263  16.239   8.844  14.202
32253W        W74264  20.219   0.744   1.558
32254W        W74265  14.979   0.314   1.128
32255W        W74266   8.299   4.134  15.712
32256W        W74267   8.639   4.814   0.788
32257W        W74268   3.379  23.711   1.428
32258W        W74269  21.149  14.974   9.202
32259W        W74270   8.889   5.814   3.852
32260W        W74271   3.049  12.984   8.902
32261W        W74272   3.399  18.604   3.402
32262W        W74273  23.299  12.834   2.418
32263W        W74274   8.249  12.524   2.378
32264W        W74275  24.969  25.341   3.842
32265W        W74276  22.399  18.834   1.648
32266W        W74277   5.359  17.794   1.688
32267W        W74278   9.659   8.174   9.052
32268W        W74279   5.769  23.341  15.752
32269W        W74280  15.109  24.361   2.642
32270W        W74281  20.989   0.114   3.402
32271W        W74282   2.039  13.334   3.412
32272W        W74283  13.059  19.264  10.662
32273W        W74284  11.039  10.594   5.212
32274W        W74285   2.739   4.864  11.702
32275W        W74286   6.049   5.214  10.042
32276W        W74287  15.509   4.484   3.972
32277W        W74288   7.339  15.704  15.872
32278W        W74289   6.609  24.171   8.822
32279W        W74290  22.569  24.581  11.732
32280W        W74291  23.319   7.794   0.018
32281W        W74292   0.649  23.911   8.412
32282W        W74293   2.479  21.361   2.338
32283W        W74294  10.089  12.754   4.642
32284W        W74295   0.509   4.404   3.282
32285W        W74296  10.339   8.884  10.722
32286W        W74297   0.169  17.824   1.458
32287W        W74298   8.639  17.154  15.152
32288W        W74299  10.879  20.584   8.292
32289W        W74300  10.739  16.254   2.922
32290W        W74301   4.719  20.504   8.252
32291W        W74302   9.509  13.464   3.082
32292W        W74303   6.739  22.811   2.662
32293W        W74304   1.479  11.234  15.402
32294W        W74305  19.739  23.971   2.048
32295W        W74306  15.779   7.094   9.802
32296W        W74307  12.689  21.681   4.442
32297W        W74308  15.499   5.334  15.152
32298W        W74309  19.649   9.884  10.422
32299W        W74310  24.319  22.221   0.648
32300W        W74311  17.109  15.834   9.502
32301W        W74312   3.719  19.514   0.328
32302W        W74313   5.219  14.534  10.172
32303W        W74314  14.299  20.744  11.552
32304W        W74315  19.279   9.734   0.848
32305W        W74316   1.629  20.454   2.198
32306W        W74317  17.289  22.361   1.658
32307W        W74318  12.049  19.454   0.708
32308W        W74319   7.989   9.114   1.258
32309W        W74320   0.609   9.324  10.062
32310W        W74321  13.429  20.614   9.632
32311W        W74322  15.209  24.281  10.052
32312W        W74323   0.339   2.844   7.882
32313W        W74324  20.219  18.654  10.522
32314W        W74325  11.849  13.884  15.052
32315W        W74326  18.069   6.984   8.932
32316W        W74327   0.279   7.544   1.678
32317W        W74328   8.539  13.664   4.512
32318W        W74329  22.659  24.101   2.932
32319W        W74330  10.039   7.184   9.982
32320W        W74331   1.529  15.664  12.182
32321W        W74332  18.689  22.941  10.822
32322W        W74333  24.469  15.504   0.258
32323W        W74334   0.179  23.151  11.522
32324W        W74335   7.139  20.274   3.702
32325W        W74336   7.549  18.844   1.078
32326W        W74337   5.679   3.764   0.608
32327W        W74338  10.339   9.884  13.612
32328W        W74339  14.069  11.854   0.628
32329W        W74340   7.869   1.374   9.522
32330W        W74341   5.139  16.844   8.462
32331W        W74342   6.609  10.384   2.468
32332W        W74343  16.289  21.234   9.092
32333W        W74344  16.539  21.761   1.028
32334W        W74345  15.359  14.574   0.658
32335W        W74346  14.369  10.224   4.762
32336W        W74347   5.569  19.894   1.018
32337W        W74348  12.769  22.521   8.912
32338W        W74349   9.879  24.471   4.502
32339W        W74350  11.699  22.841   2.288
32340W        W74351   3.559  22.081   8.122
32341W        W74352  23.019  22.761   8.572
32342W        W74353   0.159   5.944   9.222
32343W        W74354  19.159  21.881   2.238
32344W        W74355  14.329  24.051   3.742
32345W        W74356  24.709  24.671   2.782
32346W        W74357  11.609  11.884   6.402
32347W        W74358   2.819  21.521  10.442
32348W        W74359  24.819  17.034   2.972
32349W        W74360  13.239   3.424   0.828
32350W        W74361  11.219   5.454   9.002
32351W        W74362   5.499  13.814   2.782
32352W        W74363  23.949   2.124   6.752
32353W        W74364  21.269   0.224  11.412
32354W        W74365   6.799   0.934   9.202
32355W        W74366  20.579  16.104   1.978
32356W        W74367  13.269   3.874   2.522
32357W        W74368   5.439  10.944   1.348
32358W        W74369  13.509  24.011   3.532
32359W        W74370  14.289   4.514   3.542
32360W        W74371  13.529   2.004   0.918
32361W        W74372   8.309  12.734   4.442
32362W        W74373  24.629   5.384  15.322
32363W        W74374   0.429  24.511   2.168
32364W        W74375  22.149  14.484  10.772
32365W        W74376  21.069  12.434   2.048
32366W        W74377   1.929  25.281   1.708
32367W        W74378  11.269  11.464   2.128
32368W        W74379  25.149   9.744   7.852
32369W        W74380   9.749   2.794   2.822
32370W        W74381   0.379  19.094  10.472
32371W        W74382   4.439  13.794   2.418
32372W        W74383  10.989  15.564   9.562
32373W        W74384  15.479  22.971   1.488
32374W        W74385   9.819   4.414  14.682
32375W        W74386  21.379  19.964   9.482
32376W        W74387  21.769   3.754   3.122
32377W        W74388   0.001   1.664  11.622
32378W        W74389  24.019  22.771  12.422
32379W        W74390   6.139   5.914   0.008
32380W        W74391  13.449  22.851   0.658
32381W        W74392  11.679   6.484  15.262
32382W        W74393   0.169   8.474  10.532
32383W        W74394   7.389  17.294  15.472
32384W        W74395   4.469  17.714   0.928
32385W        W74396   5.529   2.724   7.892
32386W        W74397   5.519  18.544   3.442
32387W        W74398  16.469  13.454  15.542
32388W        W74399   7.429   0.804  10.692
32389W        W74400  21.129  21.164   2.702
32390W        W74401  12.019   8.704   1.268
32391W        W74402  19.729  20.394   8.712
32392W        W74403  14.769  21.791   8.872
32393W        W74404   2.819  24.811   1.068
32394W        W74405  10.029   9.824   0.968
32395W        W74406   6.779   4.004   2.852
32396W        W74407  25.009   3.064   9.522
32397W        W74408  25.109   1.174   0.598
32398W        W74409  22.829  11.754   0.338
32399W        W74410   5.709  10.784   1.728
32400W        W74411  23.569  22.761  10.632
32401W        W74412  17.359  22.181   2.862
32402W        W74413   6.469   7.574   9.112
32403W        W74414  21.609  15.144   9.262
32404W        W74415  19.159   5.114   0.788
32405W        W74416   4.209   7.834   2.188
32406W        W74417   6.909   2.424   3.192
32407W        W74418  11.119  19.254   2.632
32408W        W74419   2.369  10.574  10.502
32409W        W74420  15.569   2.804   2.722
32410W        W74421   9.439  20.464  15.242
32411W        W74422   6.369  21.034   9.732
32412W        W74423  19.789   0.244   9.432
32413W        W74424  16.729  22.801   8.872
32414W        W74425   9.479   4.874   3.752
32415W        W74426  12.819   7.324   3.562
32416W        W74427   2.899   8.864   8.072
32417W        W74428  22.859  20.164   3.222
32418W        W74429   4.579  17.814  15.052
32419W        W74430  13.139   0.724  15.432
32420W        W74431  22.959  22.661   0.748
32421W        W74432  23.709  13.694   0.668
32422W        W74433  16.279  20.044   1.588
32423W        W74434  11.059  15.044  10.472
32424W        W74435   4.779  17.754   2.368
32425W        W74436  15.159   3.744   8.972
32426W        W74437   7.179   3.214   2.962
32427W        W74438  12.429   0.384  10.212
32428W        W74439   3.289   9.384   8.702
32429W        W74440  11.469   5.954   3.312
32430W        W74441  11.639  24.781  10.642
32431W        W74442  12.539  24.621   1.368
32432W        W74443  17.429   0.094   1.878
32433W        W74444  25.429  14.264  11.422
32434W        W74445   1.909  24.021   2.468
32435W        W74446   2.179   5.844   7.862
32436W        W74447   5.269  18.764   7.832
32437W        W74448  10.939  15.464  15.642
32438W        W74449  25.219   2.704   0.168
32439W        W74450   4.929  18.724  10.262
32440W        W74451   6.049  25.531   9.012
32441W        W74452  22.199   7.524   9.522
32442W        W74453  15.669  14.134   9.482
32443W        W74454  17.849  23.561   1.058
32444W        W74455  23.879   2.374   0.028
32445W        W74456  22.169  23.851   1.418
32446W        W74457   8.469  20.274  11.472
32447W        W74458  11.339  18.624  15.292
32448W        W74459  12.699   8.584   9.382
32449W        W74460  15.419   0.674   1.028
32450W        W74461  22.339  21.561   1.958
32451W        W74462  10.399  17.884   8.352
32452W        W74463  12.869  19.774  15.402
32453W        W74464  23.239   9.144   8.132
32454W        W74465  20.999  16.124  11.592
32455W        W74466  14.929  22.701  12.152
32456W        W74467  14.519  15.304   0.848
32457W        W74468  18.939  15.074   0.348
32458W        W74469  20.139  24.751  10.852
32459W        W74470  12.749   3.264   1.528
32460W        W74471   1.779   7.434   1.408
32461W        W74472  24.699  10.634   8.422
32462W        W74473   1.679  24.801   7.952
32463W        W74474  25.239  18.554   2.562
32464W        W74475  10.689  20.154   3.882
32465W        W74476   0.799  14.904   1.848
32466W        W74477  17.989   2.494   1.028
32467W        W74478  24.849  24.491   9.632
32468W        W74479  19.959   7.814   8.262
32469W        W74480  14.999   1.914   9.492
32470W        W74481  24.369  17.724  10.272
32471W        W74482  10.509   8.814   0.048
32472W        W74483  20.529   3.964  10.382
32473W        W74484   7.009   7.694   9.862
32474W        W74485  20.049  25.511  11.252
32475W        W74486  21.019  16.704  10.602
32476W        W74487  14.559   3.874  10.342
32477W        W74488  21.679  17.284   7.882
32478W        W74489  10.169  23.031   2.238
32479W        W74490  11.329  14.754   2.398
32480W        W74491  12.269   1.094   1.568
32481W        W74492  11.279   8.194   1.148
32482W        W74493   5.519  25.301   8.202
32483W        W74494  15.249   4.264   8.752
32484W        W74495  19.119  22.171  10.482
32485W        W74496   4.249  19.184  10.332
32486W        W74497   0.379   5.394   6.832
32487W        W74498  13.319   5.524   2.318
32488W        W74499  12.929   4.784   2.592
32489W        W74500   2.359   3.114   8.202
32490W        W74501   9.159   5.034   1.278
32491W        W74502  15.419  10.094   1.148
32492W        W74503   7.189  15.384   2.328
32493W        W74504  14.119   3.204   2.592
32494W        W74505  15.189   3.194   0.968
32495W        W74506   3.619  25.201   7.882
32496W        W74507  15.999  12.464   2.348
32497W        W74508   1.289  18.614  10.532
32498W        W74509  17.749  14.204   0.708
32499W        W74510   2.309  24.641  10.242
32500W        W74511   3.629  24.221  10.082
32501W        W74512  19.889  18.604   7.362
32502W        W74513   6.969  24.061   9.162
32503W        W74514   8.519  25.131   3.032
32504W        W74515   3.809   5.124  15.372
32505W        W74516  21.539   0.814   1.878
32506W        W74517  25.359   6.214   9.082
32507W        W74518   2.949   5.354   2.428
32508W        W74519   9.269   9.594   4.252
32509W        W74520   0.069  10.724   2.822
32510W        W74521  23.959  24.661  11.412
32511W        W74522  10.109   7.224  10.902
32512W        W74523  24.879  15.544   8.322
32513W        W74524   7.349  25.491  15.542
32514W        W74525  13.289  18.204   1.818
32515W        W74526   0.149  23.091  10.732
32516W        W74527  10.349  14.314   3.782
32517W        W74528  15.559  23.671   8.722
32518W        W74529   4.519   5.834   1.838
32519W        W74530   8.469  22.341  15.612
32520W        W74531  18.789  22.531   0.838
32521W        W74532  19.629   5.304   1.188
32522W        W74533  21.249  18.284   8.942
32523W        W74534   4.619   3.144   0.738
32524W        W74535   2.139  18.414   3.482
32525W        W74536  13.969  13.784   0.978
32526W        W74537   5.389   8.734   9.202
32527W        W74538  12.999   0.034   3.402
32528W        W74539   6.019  18.054  11.112
32529W        W74540   3.919  18.314   2.168
32530W        W74541   5.139  10.074   1.278
32531W        W74542   2.739   2.524   9.932
32532W        W74543   0.899  10.724  10.382
32533W        W74544  10.479   1.994   7.602
32534W        W74545   9.529  12.344   0.498
32535W        W74546   2.149  21.461  10.462
32536W        W74547  15.929  17.194   3.842
32537W        W74548  12.289   5.744   0.178
32538W        W74549   9.819  10.874  13.782
32539W        W74550  15.059  18.254  10.812
32540W        W74551   6.629   4.084  15.562
32541W        W74552  21.109  22.861   1.358
32542W        W74553  18.039  20.224   8.622
32543W        W74554  22.629   3.594   8.372
32544W        W74555   0.809  22.121  15.782
32545W        W74556   5.979   5.544   3.422
32546W        W74557   1.829  15.334   9.042
32547W        W74558  17.619  24.251   1.198
32548W        W74559  13.039  24.621   2.542
32549W        W74560  20.039  20.944   9.142
32550W        W74561   7.519  14.434   0.798
32551W        W74562  22.819  15.044  11.242
32552W        W74563  15.249  11.114   9.332
32553W        W74564   4.359  10.414   2.238
32554W        W74565   9.809  16.414  10.212
32555W        W74566  12.459  12.274  10.382
32556W        W74567  17.009  21.411   0.208
32557W        W74568  21.209   9.734   8.612
32558W        W74569  25.559   9.614   1.138
32559W        W74570  17.489   9.774   8.552
32560W        W74571   0.839  25.431   3.322
32561W        W74572   7.459   4.994   2.258
32562W        W74573  17.299   5.074  15.692
32563W        W74574  13.799   6.594   0.428
32564W        W74575  15.079  19.724  15.392
32565W        W74576  23.169   7.774   1.328
32566W        W74577  20.799   8.704   1.388
32567W        W74578  16.629  25.491  10.172
32568W        W74579  14.599   8.254   3.502
32569W        W74580  14.909  17.334   9.562
32570W        W74581   0.041  22.101  10.912
32571W        W74582  18.309  16.954  10.392
32572W        W74583   4.899   8.734   8.002
32573W        W74584  14.739  23.761   3.892
32574W        W74585  22.999   0.974  15.622
32575W        W74586  16.079  23.021   2.822
32576W        W74587  14.489  14.654   9.742
32577W        W74588  23.979  22.581   2.138
32578W        W74589   9.429  10.364  10.052
32579W        W74590   9.399   9.964  14.812
32580W        W74591   3.889  13.274   1.668
32581W        W74592  25.299   7.094   7.552
32582W        W74593   5.039  10.894  15.542
32583W        W74594   9.409  12.324  15.692
32584W        W74595  15.499  22.391   1.388
32585W        W74596  25.499  16.604   7.362
32586W        W74597   6.149  24.941   3.702
32587W        W74598   0.629   0.144   2.208
32588W        W74599   0.979   3.714   8.262
32589W        W74600   0.089  25.311  11.762
32590W        W74601   3.619  13.184   2.208
32591W        W74602   9.659   7.664   8.902
32592W        W74603  21.529   3.044   2.522
32593W        W74604  22.949   3.014   3.802
32594W        W74605  18.399  17.634   3.062
32595W        W74606  11.129  15.374   3.092
32596W        W74607   4.149  19.284   2.058
32597W        W74608  23.049   3.854   1.558
32598W        W74609   2.869  15.364   8.312
32599W        W74610  18.909  21.851  11.772
32600W        W74611  20.729  10.274  15.452
32601W        W74612  21.049  14.534   0.658
32602W        W74613   1.469  19.154   8.312
32603W        W74614  11.449  22.071   1.028
32604W        W74615  22.269  18.524  12.022
32605W        W74616  23.539  12.124  10.362
32606W        W74617  10.059  12.334  14.692
32607W        W74618   9.919  13.244  11.232
32608W        W74619   7.889  17.164   0.418
32609W        W74620  11.109   6.564   8.252
32610W        W74621  22.339  25.411   0.528
32611W        W74622  21.769  12.754   7.632
32612W        W74623  24.889   5.264   9.012
32613W        W74624  15.449  19.624   1.608
32614W        W74625  12.099  11.764  13.712
32615W        W74626  11.719  21.861   0.358
32616W        W74627   5.139  24.681   8.792
32617W        W74628  20.649   1.834  11.612
32618W        W74629   3.889   8.844   2.478
32619W        W74630   5.149  24.411   0.848
32620W        W74631  13.109   6.784   9.442
32621W        W74632  21.599   0.634  10.222
32622W        W74633   9.359  15.524   0.488
32623W        W74634  21.259   7.784  11.222
32624W        W74635   0.609  18.714   9.222
32625W        W74636  10.309   6.784   2.592
32626W        W74637  19.649  17.904  10.212
32627W        W74638   2.759  21.951   8.542
32628W        W74639   3.599   3.124   1.408
32629W        W74640   8.699  10.524  15.182
32630W        W74641  13.159   3.604  10.702
32631W        W74642   9.299  22.691  10.872
32632W        W74643  19.689   4.034   9.302
32633W        W74644  14.999  25.321   1.258
32634W        W74645  15.799   7.614   0.998
32635W        W74646  14.359   8.534   3.192
32636W        W74647  15.579  13.584  15.632
32637W        W74648  10.999   5.624   3.222
32638W        W74649  23.329   8.664  11.232
32639W        W74650   6.999   6.044   9.852
32640W        W74651  11.959  22.461  10.562
32641W        W74652  23.429   9.764   8.212
32642W        W74653   9.419  20.874   9.492
32643W        W74654  10.019  14.914   8.912
32644W        W74655  13.529  18.844   0.248
32645W        W74656  14.169  13.064  10.612
32646W        W74657  17.399   6.964   3.592
32647W        W74658   8.379  16.534   9.332
32648W        W74659   6.589  23.471  15.492
32649W        W74660  10.569  23.111   0.758
32650W        W74661  19.209  20.824  11.752
32651W        W74662  18.869  17.254   1.758
32652W        W74663  23.639   3.524   1.938
32653W        W74664  21.099  16.284   1.988
32654W        W74665  24.159   0.104   8.902
32655W        W74666  18.319   3.684   9.892
32656W        W74667  17.219   6.774  10.052
32657W        W74668  14.629  20.324   7.712
32658W        W74669  24.539   2.484   1.708
32659W        W74670   0.679   5.864   9.082
32660W        W74671  21.339   9.364   0.478
32661W        W74672  18.539  20.044   1.958
32662W        W74673   2.319   2.724   2.692
32663W        W74674  18.529   9.624   8.252
32664W        W74675  10.249  10.704  14.112
32665W        W74676  13.129  14.474  15.222
32666W        W74677  19.709  14.434   2.772
32667W        W74678  24.599  24.321   8.702
32668W        W74679  17.689  15.824  11.702
32669W        W74680   4.949   2.244  15.082
32670W        W74681  19.959   1.274   4.382
32671W        W74682  16.029  10.564   2.078
32672W        W74683  15.209   5.954   8.752
32673W        W74684   6.939  19.604   8.432
32674W        W74685  21.079   3.194  15.352
32675W        W74686   0.789  11.774   2.418
32676W        W74687   9.689   8.634   9.362
32677W        W74688   8.409  25.471  15.202
32678W        W74689   5.119  12.824   1.958
32679W        W74690   7.589  20.634  14.932
32680W        W74691  24.269  16.614   3.722
32681W        W74692  24.719  10.244  15.082
32682W        W74693  10.449  24.871  10.172
32683W        W74694  10.749  12.014   0.678
32684W        W74695  20.349  24.851   2.772
32685W        W74696   4.679  22.111   9.412
32686W        W74697  18.959   9.954   9.512
32687W        W74698   8.129   4.954   0.138
32688W        W74699   5.439  11.054  14.762
32689W        W74700   2.889  15.474   3.992
32690W        W74701   9.589   0.764   9.762
32691W        W74702   3.589   4.484   9.072
32692W        W74703  16.879  14.144   3.362
32693W        W74704   8.209  11.994   9.532
32694W        W74705  16.739  21.651   8.022
32695W        W74706   0.889  17.884   9.482
32696W        W74707   1.659  25.011   0.978
32697W        W74708   5.009   9.644   9.742
32698W        W74709  21.459  10.124   0.698
32699W        W74710   3.369  17.614   9.352
32700W        W74711  13.969   6.434  15.872
32701W        W74712   9.839  16.224  15.632
32702W        W74713  12.739   6.394   3.832
32703W        W74714   0.829  23.071   8.952
32704W        W74715  23.529   2.044   3.352
32705W        W74716  11.939  23.341  10.132
32706W        W74717  25.589   4.194   7.302
32707W        W74718  14.169   1.334   9.522
32708W        W74719   8.769  12.224   3.692
32709W        W74720   0.329  24.811   2.702
32710W        W74721  16.189   3.204   1.448
32711W        W74722  20.129  13.094  11.162
32712W        W74723  18.599   4.554   0.378
32713W        W74724  23.669  12.364   3.392
32714W        W74725   1.579  16.064  15.862
32715W        W74726  18.299  25.201  10.682
32716W        W74727   8.099  14.994   1.188
32717W        W74728  12.819  15.424  15.812
32718W        W74729  16.579   3.214   8.892
32719W        W74730   3.159   7.064   8.582
32720W        W74731   4.099   9.684   8.282
32721W        W74732  10.299   6.044   2.048
32722W        W74733  12.149  12.904   3.842
32723W        W74734  22.499  20.054   7.352
32724W        W74735  25.079   1.714  10.832
32725W        W74736   8.129  16.324   0.248
32726W        W74737  12.649  15.814  15.532
32727W        W74738  13.769  21.981   3.582
32728W        W74739   4.109  14.494   8.202
32729W        W74740  17.269   1.914   3.082
32730W        W74741   6.869   9.244  15.672
32731W        W74742   8.729   9.764   2.138
32732W        W74743  10.879   9.244  10.402
32733W        W74744  18.239   4.634   2.018
32734W        W74745  22.999   0.474   3.612
32735W        W74746  14.059  16.644   1.478
32736W        W74747  13.229  11.694   0.758
32737W        W74748  21.779  24.121   4.442
32738W        W74749  17.779   5.094   0.608
32739W        W74750  11.479  10.364   2.632
32740W        W74751  16.559   4.524  10.462
32741W        W74752  21.969   8.524   7.822
32742W        W74753  14.829  11.454   4.432
32743W        W74754  17.339   4.154   9.202
32744W        W74755   2.239  17.454   3.702
32745W        W74756   8.679  17.894   2.522
32746W        W74757  13.609  17.974  15.462
32747W        W74758  20.609   5.274   1.158
32748W        W74759  20.169   3.934   3.332
32749W        W74760  23.099  22.211  10.112
32750W        W74761   7.779   6.774   0.818
32751W        W74762  20.029   6.364   8.972
32752W        W74763  24.929  16.504   1.828
32753W        W74764  16.609   5.594  15.292
32754W        W74765   2.779   8.664  10.312
32755W        W74766  23.519   6.684   3.232
32756W        W74767  12.479   2.294  10.102
32757W        W74768  17.399   1.194   3.512
32758W        W74769   1.059   5.414  15.532
32759W        W74770  23.639  21.391   2.138
32760W        W74771  14.499   8.024   8.932
32761W        W74772  13.719  15.414   0.308
32762W        W74773  11.069  20.104  10.382
32763W        W74774  23.499  20.314   2.328
32764W        W74775   7.979   6.504  15.162
32765W        W74776  12.119   7.744   3.102
32766W        W74777   1.559   6.124   8.202
32767W        W74778  17.509   6.254  10.002
32768W        W74779   6.839   3.314   0.378
32769W        W74780   9.179  24.951   2.458
32770W        W74781   3.119  10.564   9.872
32771W        W74782  23.849  10.774   9.992
32772W        W74783   1.149  10.214   0.268
32773W        W74784   4.199  20.944   2.742
32774W        W74785  21.199   1.874   1.228
32775W        W74786  10.149   0.464   3.202
32776W        W74787  18.979   3.204  11.872
32777W        W74788  15.799   3.734   2.078
32778W        W74789   8.019  12.534  10.202
32779W        W74790  18.129   2.864  11.552
32780W        W74791  23.819   5.754   7.042
32781W        W74792   8.559  21.431   3.662
32782W        W74793   5.329  10.004  10.072
32783W        W74794  14.009   1.834   1.098
32784W        W74795  18.969   0.624  10.012
32785W        W74796   2.329  24.811   1.788
32786W        W74797   7.089  23.491   9.082
32787W        W74798   2.219   9.384   7.572
32788W        W74799   8.069   0.274   1.538
32789W        W74800   0.189  22.581  10.112
32790W        W74801   9.729   4.204   8.452
32791W        W74802  10.659  23.201   9.822
32792W        W74803  11.859   2.174   0.408
32793W        W74804  24.969  20.484   2.712
32794W        W74805  11.689   7.854   1.038
32795W        W74806  17.119  16.604  11.932
32796W        W74807   3.119  12.734   2.752
32797W        W74808  13.469  10.404   8.582
32798W        W74809  22.189  14.884   1.688
32799W        W74810  24.689  18.594   2.842
32800W        W74811   0.001  22.571   0.448
32801W        W74812  17.369  17.054   9.522
32802W        W74813   6.909   1.314   0.148
32803W        W74814  15.399  17.934   4.182
32804W        W74815  14.999  15.904   0.658
32805W        W74816   2.779  17.754  11.282
32806W        W74817   1.449  14.944   1.378
32807W        W74818  23.279  19.084   2.228
32808W        W74819  15.389   8.574   3.592
32809W        W74820   5.169   6.824  11.172
32810W        W74821   9.119  25.221   4.172
32811W        W74822   4.849  11.514   8.442
32812W        W74823   3.189   9.874   8.652
32813W        W74824   7.069  17.814   2.378
32814W        W74825   2.389  23.571   1.758
32815W        W74826  22.649   5.134   7.742
32816W        W74827  22.589   0.534   2.188
32817W        W74828  11.119  10.984   3.032
32818W        W74829  24.209   6.474   0.408
32819W        W74830   0.529  16.254  15.862
32820W        W74831  15.639  23.001   0.058
32821W        W74832   4.489  23.231  10.312
32822W        W74833   3.009  20.314   0.948
32823W        W74834  21.379   1.374   1.818
32824W        W74835  16.249  20.804   2.812
32825W        W74836  16.209  25.411   0.058
32826W        W74837  21.649  11.104   8.542
32827W        W74838   5.009  20.914   2.218
32828W        W74839   3.479   4.494  10.582
32829W        W74840   4.369   1.954   2.378
32830W        W74841  19.369   5.284   4.592
32831W        W74842   3.459   7.024   0.278
32832W        W74843  24.439   4.754   0.478
32833W        W74844   8.459  16.364  15.742
32834W        W74845   9.649  14.024   2.408
32835W        W74846   7.589  12.964   2.308
32836W        W74847  14.469  22.781   1.588
32837W        W74848   9.809  22.971   3.662
32838W        W74849  23.049   5.184   2.138
32839W        W74850  15.329   0.864   8.832
32840W        W74851  19.339   3.304  10.322
32841W        W74852  13.869  25.551  11.202
32842W        W74853   9.449  24.331  11.512
32843W        W74854  24.269  19.874   2.912
32844W        W74855  10.119   5.644   8.182
32845W        W74856  12.379  25.181   1.438
32846W        W74857   2.659  20.504   0.628
32847W        W74858  12.369  18.734   1.628
32848W        W74859  12.509  16.284  15.452
32849W        W74860   8.609   2.114  14.732
32850W        W74861  20.169  17.354  10.832
32851W        W74862   7.739   3.474  15.482
32852W        W74863  14.729  16.584   3.192
32853W        W74864  16.019  14.484  10.522
32854W        W74865  11.579   9.564  15.842
32855W        W74866   8.309  10.464   9.292
32856W        W74867  16.409  15.004   2.288
32857W        W74868  18.309   1.284   2.018
32858W        W74869  12.219  15.244   1.428
32859W        W74870  15.359  12.374  14.702
32860W        W74871   0.499  21.264   1.008
32861W        W74872  19.989  13.134   0.188
32862W        W74873  10.399  12.664  14.922
32863W        W74874  21.759  14.964  15.742
32864W        W74875   3.219  23.681  11.782
32865W        W74876   0.339  23.821   9.592
32866W        W74877   6.409   7.484   8.622
32867W        W74878   0.269  20.964   7.992
32868W        W74879  21.959  13.604  10.022
32869W        W74880  22.569  15.274   0.288
32870W        W74881  19.829  11.314  10.752
32871W        W74882  20.559   7.354   2.662
32872W        W74883  11.889   3.024   9.892
32873W        W74884  21.559   7.364   0.128
32874W        W74885   9.359  24.431  10.762
32875W        W74886   6.669   6.484   1.808
32876W        W74887  15.099  11.684   2.348
32877W        W74888   3.209  24.701  11.372
32878W        W74889  13.239  10.654  10.782
32879W        W74890  16.879  12.064  15.492
32880W        W74891   8.839  18.404   0.168
32881W        W74892  13.389   3.554  15.832
32882W        W74893   1.799  19.154   3.322
32883W        W74894  17.069  12.204   1.928
32884W        W74895   9.029   5.074   3.532
32885W        W74896   8.399  20.094   9.222
32886W        W74897  12.659   9.324   0.168
32887W        W74898  10.419  14.004   1.888
32888W        W74899   1.039   7.644   1.138
32889W        W74900  11.289   2.914   9.202
32890W        W74901   4.959  14.634   1.158
32891W        W74902  12.969  14.684  10.222
32892W        W74903  18.079   8.304   1.558
32893W        W74904  20.959  12.684   8.222
32894W        W74905   3.569  11.874   1.868
32895W        W74906  19.149  15.804   3.062
32896W        W74907  24.419  13.064   7.372
32897W        W74908  25.549  12.704   1.378
32898W        W74909  12.919  14.404   4.792
32899W        W74910  10.919  25.121   3.542
32900W        W74911  10.669  11.834  15.402
32901W        W74912  12.839  18.914  14.362
32902W        W74913   6.029  24.441   9.082
32903W        W74914   3.789   8.534   1.518
32904W        W74915  12.799   0.264   3.982
32905W        W74916  25.129   7.154  11.862
32906W        W74917  20.539  16.794   2.732
32907W        W74918  12.709  23.431   8.882
32908W        W74919   6.239  11.064   9.852
32909W        W74920   7.539  11.564   9.822
32910W        W74921  18.399  17.914   8.402
32911W        W74922   1.749   4.754   2.218
32912W        W74923  14.089  18.814   8.542
32913W        W74924  24.939  16.834   1.298
32914W        W74925  15.729   6.624   1.248
32915W        W74926   1.499  14.444   9.032
32916W        W74927  22.929  12.194   1.738
32917W        W74928  12.519   6.594  10.222
32918W        W74929  20.119   3.554   2.542
32919W        W74930   2.909   6.304   1.238
32920W        W74931  10.649  24.231   9.752
32921W        W74932  18.349   8.274  15.162
32922W        W74933  22.509  14.434   7.332
32923W        W74934   7.449   7.524   3.412
32924W        W74935  16.309   5.964  14.922
32925W        W74936  15.509  21.441   2.642
32926W        W74937   6.819  24.861   3.242
32927W        W74938  16.769   5.224   8.172
32928W        W74939   2.879  11.664  15.812
32929W        W74940  21.419  21.401   8.662
32930W        W74941  19.389   9.234   7.982
32931W        W74942  22.069  13.494   9.522
32932W        W74943  16.459  13.254   2.348
32933W        W74944  11.009  10.934  10.322
32934W        W74945   1.529  21.364  15.852
32935W        W74946   4.729  11.234  15.602
32936W        W74947  19.399   6.354   8.282
32937W        W74948  17.549  16.104  15.872
32938W        W74949   7.159  14.644   3.052
32939W        W74950  24.729   0.344   8.092
32940W        W74951  10.349   2.614  15.582
32941W        W74952   1.779  11.474   0.048
32942W        W74953  11.229  12.794  13.932
32943W        W74954  21.899   5.584   3.272
32944W        W74955  15.569   7.224   2.992
32945W        W74956  14.199  13.034   9.682
32946W        W74957  25.319   7.474   1.528
32947W        W74958  10.519   0.144   9.592
32948W        W74959   0.219  17.824  12.472
32949W        W74960   0.329  14.374  10.522
32950W        W74961  16.299   7.644   9.102
32951W        W74962  24.039   2.594  11.382
32952W        W74963  17.889  22.511  11.332
32953W        W74964   3.679  11.284  10.322
32954W        W74965   5.749  13.764   3.752
32955W        W74966  16.679  19.654   2.592
32956W        W74967  22.959  22.621  12.032
32957W        W74968  15.669  21.811   9.632
32958W        W74969  18.869  14.534   8.742
32959W        W74970   4.789   3.034   3.682
32960W        W74971   5.629   7.284   8.212
32961W        W74972   4.589  25.331   7.832
32962W        W74973  23.289   4.644   2.912
32963W        W74974   9.069  12.534   8.412
32964W        W74975  23.309  21.801   2.158
32965W        W74976  19.399  21.284   9.582
32966W        W74977  11.609  21.354  10.012
32967W        W74978  21.639   5.244   7.752
32968W        W74979  12.959  12.934  14.812
32969W        W74980   0.459   9.744  15.632
32970W        W74981   1.079   4.574   8.272
32971W        W74982  20.479  16.214   0.938
32972W        W74983   0.219  14.194   9.162
32973W        W74984   7.789  17.664   0.168
32974W        W74985   7.119   3.474   2.128
32975W        W74986  21.559   3.024  11.362
32976W        W74987  15.059   0.914   0.308
32977W        W74988  13.199  15.234   4.602
32978W        W74989   3.929  11.944   0.118
32979W        W74990   9.749  12.484   1.438
32980W        W74991   6.199  17.714  11.462
32981W        W74992   4.119  23.131   8.172
32982W        W74993  15.679  14.794   3.652
32983W        W74994   3.349  21.104  11.662
32984W        W74995  19.009  22.381   3.722
32985W        W74996  20.559  17.204  10.572
32986W        W74997   9.249  22.861   8.722
32987W        W74998  17.559  12.764   0.408
32988W        W74999  13.189   2.594   0.278
32989W        W75000  13.569  17.234   2.038
32990W        W75001  18.209   0.524  10.872
32991W        W75002  21.849  25.121   3.402
32992W        W75003  24.079  13.484  10.852
32993W        W75004   5.309  13.544   2.388
32994W        W75005   2.509  15.754   1.938
32995W        W75006  21.899  13.684   8.182
32996W        W75007  20.859  25.491   8.462
32997W        W75008   3.129   0.454   1.258
32998W        W75009   1.929  10.524   0.108
32999W        W75010   4.299   8.874   9.792
33000W        W75011   5.599  11.514  15.592
33001W        W75012   4.669  25.201   8.942
33002W        W75013  13.269   3.164  10.292
33003W        W75014   0.299  20.124   9.032
33004W        W75015   1.829  18.904   8.572
33005W        W75016  24.369   1.814   8.222
33006W        W75017   8.289   2.934  10.172
33007W        W75018   1.029  11.294   2.562
33008W        W75019  11.689  23.041   0.748
33009W        W75020  14.289   4.564   3.052
33010W        W75021   6.229  10.504   8.782
33011W        W75022  17.399   8.974   8.242
33012W        W75023  19.329   9.224  15.872
33013W        W75024   4.069  24.381   1.708
33014W        W75025   1.469  14.244   3.102
33015W        W75026  16.059   8.804   0.208
33016W        W75027  19.259   4.394  15.432
33017W        W75028   1.529   7.974   0.638
33018W        W75029  24.679   3.294   0.708
33019W        W75030  20.529  25.331   0.078
33020W        W75031  25.539   0.874   9.762
33021W        W75032   6.289  18.984  11.172
33022W        W75033  10.439  11.174   3.812
33023W        W75034  16.889  18.654   0.548
33024W        W75035   7.259  20.334   0.718
33025W        W75036  24.039  19.214   9.652
33026W        W75037   9.409   0.094  15.772
33027W        W75038   6.859   6.994   2.982
33028W        W75039   2.979  14.834   8.292
33029W        W75040  16.189  22.621  11.392
33030W        W75041  12.789  18.634   4.352
33031W        W75042  14.599  15.494  10.302
33032W        W75043  20.109  25.421  10.132
33033W        W75044   4.529  10.064   2.592
33034W        W75045  12.729   9.354  10.822
33035W        W75046   8.149   8.154   9.892
33036W        W75047  19.719   1.174   0.498
33037W        W75048  21.129  17.294   8.002
33038W        W75049  23.339   4.034   0.888
33039W        W75050  23.699  23.771  11.452
33040W        W75051  24.389   8.294  12.102
33041W        W75052   5.299   8.354   1.888
33042W        W75053   9.219  11.944  14.642
33043W        W75054   7.599  25.551   2.338
33044W        W75055   5.809  16.904  15.242
33045W        W75056   1.299  17.494  11.192
33046W        W75057  12.069   3.044   0.978
33047W        W75058  24.779   0.234  11.492
33048W        W75059  17.229  16.114   1.448
33049W        W75060  19.689   6.504   1.698
33050W        W75061  16.799   2.074   8.072
33051W        W75062   5.449   4.114   0.268
33052W        W75063   0.349   6.494   7.312
33053W        W75064  18.589   4.484   9.742
33054W        W75065  14.369   4.604   0.988
33055W        W75066   2.419  10.904   1.988
33056W        W75067  13.939  21.911   1.268
33057W        W75068  18.339  14.454   1.448
33058W        W75069  10.319   6.044  10.292
33059W        W75070  10.819  15.204   2.632
33060W        W75071  10.219   4.614  15.502
33061W        W75072  12.179  12.944   4.732
33062W        W75073  14.789   1.664   0.778
33063W        W75074  18.989   8.944   9.762
33064W        W75075   2.899  14.544   3.602
33065W        W75076   7.619  20.284  15.822
33066W        W75077  12.249  22.871  10.732
33067W        W75078  22.689  24.391  12.192
33068W        W75079  15.669   5.784   4.722
33069W        W75080   8.929  12.194  15.642
33070W        W75081   9.609  19.004   0.708
33071W        W75082   4.199   0.564   0.158
33072W        W75083   6.149  10.064   0.778
33073W        W75084   7.009   9.004   8.862
33074W        W75085  10.639  12.864  14.192
33075W        W75086  17.509  24.271   0.728
33076W        W75087  19.429   1.534  10.812
33077W        W75088  16.719   9.504   9.122
33078W        W75089  18.019   1.734   8.182
33079W        W75090  16.539   6.614   4.712
33080W        W75091  18.739   6.964   4.072
33081W        W75092   3.379  14.954  11.332
33082W        W75093   5.849  19.914   8.572
33083W        W75094   4.349  17.564   7.482
33084W        W75095  23.469  17.864   3.052
33085W        W75096  16.409  16.014   8.352
33086W        W75097   3.299   5.064  11.002
33087W        W75098   0.229  21.044  11.322
33088W        W75099  18.659  20.574   9.452
33089W        W75100  19.199   7.374   2.932
33090W        W75101  24.589  24.071  10.182
33091W        W75102  21.559   1.244  12.122
33092W        W75103  24.349  19.974  10.242
33093W        W75104   0.031  16.704  10.412
33094W        W75105  19.269   4.134   0.488
33095W        W75106  16.459  15.724  15.422
33096W        W75107  14.859  11.874  14.672
33097W        W75108   2.659  23.991   3.202
33098W        W75109   2.209   5.534   1.498
33099W        W75110   5.279  11.884  14.632
33100W        W75111  10.189   0.264  10.762
33101W        W75112  16.909   4.554   3.882
33102W        W75113  19.749   7.834   7.222
33103W        W75114   6.419   0.444   3.622
33104W        W75115  14.949   4.204  10.042
33105W        W75116   7.219  25.431  10.842
33106W        W75117  18.059  14.894   1.858
33107W        W75118   6.669   7.614   1.198
33108W        W75119  21.929   6.394  11.322
33109W        W75120  14.519  11.614   0.238
33110W        W75121   0.139  16.644  12.022
33111W        W75122  25.059   3.934  10.702
33112W        W75123   1.749   1.154   7.122
33113W        W75124  15.619   8.864   0.508
33114W        W75125  19.119   8.124   1.948
33115W        W75126  23.339   9.764   7.692
33116W        W75127  22.349  11.224   0.628
33117W        W75128   5.869  13.654   2.488
33118W        W75129  12.129  25.201   8.752
33119W        W75130  25.339  17.894   3.062
33120W        W75131  21.669  21.124   2.632
33121W        W75132   3.309  21.174  15.232
33122W        W75133  23.669   8.304   0.928
33123W        W75134   7.239  18.704   1.448
33124W        W75135  14.529  10.534  10.042
33125W        W75136  12.659  21.701   9.292
33126W        W75137  20.299  18.714  11.952
33127W        W75138   8.709  17.854   0.328
33128W        W75139  21.559   5.314   9.142
33129W        W75140  20.829  11.034   1.058
33130W        W75141   0.289   8.764  11.522
33131W        W75142   1.099  10.274   9.892
33132W        W75143  23.899   9.914   0.548
33133W        W75144  15.569   7.194   0.738
33134W        W75145  23.299   7.954   0.888
33135W        W75146  17.969   5.624  15.192
33136W        W75147  14.649  11.954   4.442
33137W        W75148  15.779  25.581   3.172
33138W        W75149   4.619   3.994   0.938
33139W        W75150  18.859   6.544  10.072
33140W        W75151   8.839  20.334   0.288
33141W        W75152  19.919  13.474  10.162
33142W        W75153  23.829  18.664  10.552
33143W        W75154  15.099  18.754  10.892
33144W        W75155   4.409  16.404   3.932
33145W        W75156   8.859  23.831  11.382
33146W        W75157  11.619  17.244   4.892
33147W        W75158   6.209  12.194   0.788
33148W        W75159  17.679  23.181  10.092
33149W        W75160  23.409  24.371   2.118
33150W        W75161  15.789  24.221  11.282
33151W        W75162   0.369  10.684  15.302
33152W        W75163  14.679   2.694   3.082
33153W        W75164  17.659  19.894   0.178
33154W        W75165  11.819  15.484  10.162
33155W        W75166   4.109   1.454   2.248
33156W        W75167  15.159  14.244  10.722
33157W        W75168   8.189  11.134   2.852
33158W        W75169   0.849   4.544   1.528
33159W        W75170   3.689  21.274   1.588
33160W        W75171   5.019  21.741   1.648
33161W        W75172   6.269  21.511  10.082
33162W        W75173  18.899   4.204  11.582
33163W        W75174  16.439   6.984   1.938
33164W        W75175   0.079  19.424   4.012
33165W        W75176  15.559  24.501   2.368
33166W        W75177  17.919  23.891   0.698
33167W        W75178  12.589   2.244   3.042
33168W        W75179  21.019  18.524   9.562
33169W        W75180   1.179   3.784   0.088
33170W        W75181  23.749  12.234   2.852
33171W        W75182  23.649  16.124   0.198
33172W        W75183   3.249  13.174   9.412
33173W        W75184  19.919  14.494   3.672
33174W        W75185  21.989  21.531   8.582
33175W        W75186   7.339  25.241  10.262
33176W        W75187   2.839  18.764   2.438
33177W        W75188  22.709  20.074   3.842
33178W        W75189  21.769  10.304   8.812
33179W        W75190  25.299   9.794   7.272
33180W        W75191   5.669   4.624  11.222
33181W        W75192   5.699  22.081   9.632
33182W        W75193  10.429   9.794   9.222
33183W        W75194  13.229   4.644  14.812
33184W        W75195  14.949  17.834   4.302
33185W        W75196   1.929  14.174   8.212
33186W        W75197   2.929   0.204  11.232
33187W        W75198  19.829   9.114  11.472
33188W        W75199  17.319   3.224   8.462
33189W        W75200  16.739   6.494   3.282
33190W        W75201  21.309   8.644   2.552
33191W        W75202  18.189  19.574  11.232
33192W        W75203  21.059   1.164   8.072
33193W        W75204  12.509   3.034   4.192
33194W        W75205   0.829  15.744   9.392
33195W        W75206   2.959  16.384   2.408
33196W        W75207   1.779  13.104   2.278
33197W        W75208   3.889  19.964  11.932
33198W        W75209  23.519  20.694   1.338
33199W        W75210  13.509   9.394   3.552
33200W        W75211   4.719  23.731   9.662
33201W        W75212  25.259  17.504   2.542
33202W        W75213   9.689  15.634   3.412
33203W        W75214   4.689  20.884   1.848
33204W        W75215  19.369  12.594   9.272
33205W        W75216  14.059   8.314   3.612
33206W        W75217   5.269  14.664   3.572
33207W        W75218  16.109  19.284   8.192
33208W        W75219  21.339   8.764   1.208
33209W        W75220  10.109  16.624  10.532
33210W        W75221   2.439  22.911   7.642
33211W        W75222   8.489  20.684   4.242
33212W        W75223   6.309   3.024   3.342
33213W        W75224  16.389  16.024   3.622
33214W        W75225  24.549   9.404   9.692
33215W        W75226  20.339   0.134   9.232
33216W        W75227   7.219  19.314  10.572
33217W        W75228   0.069  19.944   1.088
33218W        W75229  25.569  13.694   0.068
33219W        W75230  24.259   8.944  11.172
33220W        W75231   7.329  13.554   1.678
33221W        W75232  20.799  12.474   0.158
33222W        W75233  22.279   2.264   1.908
33223W        W75234  20.039   2.414  15.772
33224W        W75235  11.599  10.414  15.612
33225W        W75236  22.659  18.304   3.412
33226W        W75237   9.879   3.284  10.112
33227W        W75238   6.109   8.524   3.372
33228W        W75239  24.649  20.034  11.862
33229W        W75240   6.829  24.211   0.748
33230W        W75241   8.789   2.894   0.538
33231W        W75242  24.069  23.011   9.312
33232W        W75243   0.609   4.414   0.068
33233W        W75244   4.679  14.414   3.142
33234W        W75245  20.419   7.844   7.942
33235W        W75246   3.959  10.314   2.498
33236W        W75247  22.959  15.454   9.222
33237W        W75248  17.279  21.314  15.602
33238W        W75249  16.759   6.184   9.632
33239W        W75250  14.569   7.864   9.772
33240W        W75251   4.069  16.784   9.432
33241W        W75252   6.959   7.234  10.722
33242W        W75253   8.389  22.731  10.862
33243W        W75254  21.569  21.791   9.162
33244W        W75255   1.099   5.974   7.662
33245W        W75256   6.529  12.904   1.418
33246W        W75257  22.729   0.904   0.798
33247W        W75258  10.059  10.894   3.582
33248W        W75259  18.879  17.974   8.232
33249W        W75260  10.409   1.044   9.952
33250W        W75261   1.959  13.194   1.658
33251W        W75262  15.349  22.521   3.692
33252W        W75263   9.619   4.074  10.282
33253W        W75264   8.729  17.834   9.282
33254W        W75265  16.299   5.134   3.422
33255W        W75266   1.239  25.051   2.842
33256W        W75267   6.919  17.974   9.302
33257W        W75268   8.869  11.094   0.778
33258W        W75269  14.049  21.441   3.372
33259W        W75270   3.849  12.044  14.832
33260W        W75271  25.049   8.674  15.552
33261W        W75272  17.379  12.874   8.192
33262W        W75273  14.949   2.214   2.992
33263W        W75274  19.179   7.244   7.952
33264W        W75275  23.269  23.261   9.222
33265W        W75276  12.949  23.131   3.212
33266W        W75277  14.179  22.651   9.022
33267W        W75278  18.999  12.544   8.852
33268W        W75279   4.359   1.724   3.142
33269W        W75280   8.979  17.114   9.862
33270W        W75281  13.339  24.111   2.622
33271W        W75282   0.679  17.474   8.022
33272W        W75283  15.679  23.091   0.688
33273W        W75284   9.999  21.701   2.248
33274W        W75285   4.009  21.224   2.328
33275W        W75286   9.039  16.344   8.892
33276W        W75287  12.889   4.674   1.088
33277W        W75288  11.289   1.974   8.322
33278W        W75289  14.809  16.904   4.512
33279W        W75290  12.559  15.524   3.952
33280W        W75291   5.889   1.954   2.108
33281W        W75292  13.649  23.351   9.422
33282W        W75293   6.719   4.574  15.772
33283W        W75294   6.519  10.184   3.352
33284W        W75295  18.849   9.374  15.842
33285W        W75296   0.999  10.764   9.782
33286W        W75297  21.789   9.274   7.142
33287W        W75298   5.699  23.941   2.148
33288W        W75299   1.309  12.774   0.238
33289W        W75300   3.069   0.834   3.292
33290W        W75301  19.729   3.924   0.498
33291W        W75302  11.969  24.151  11.292
33292W        W75303  24.259  12.384  11.382
33293W        W75304   5.229  17.834   2.208
33294W        W75305   0.279   5.654   2.328
33295W        W75306  15.469   3.334  10.812
33296W        W75307   5.829  16.694  10.112
33297W        W75308   6.699  11.444   4.062
33298W        W75309  10.929   9.994   9.652
33299W        W75310   9.679   9.814   9.872
33300W        W75311  16.159   7.894   0.388
33301W        W75312   4.929  16.454  11.222
33302W        W75313   8.069   5.874  15.022
33303W        W75314  19.499   2.034   2.672
33304W        W75315   6.579   8.434   8.132
33305W        W75316   6.909  14.984   0.538
33306W        W75317  17.499   4.004  15.702
33307W        W75318   0.429  10.224   8.092
33308W        W75319  13.759   4.764   9.342
33309W        W75320   2.189   5.304   1.028
33310W        W75321   7.599  18.804   8.702
33311W        W75322  10.129   9.464  14.382
33312W        W75323   5.129   2.744   4.572
33313W        W75324   8.769  21.014   9.032
33314W        W75325   5.089  10.784  15.022
33315W        W75326  20.699  17.204   1.078
33316W        W75327  25.139  24.641  10.062
33317W        W75328  13.009  11.494   2.572
33318W        W75329  23.089  22.871   9.562
33319W        W75330  18.189   1.614   3.262
33320W        W75331  18.949  10.044   0.778
33321W        W75332   1.529  13.054   1.388
33322W        W75333  17.459   1.894   1.088
33323W        W75334  14.619  13.854  15.562
33324W        W75335   5.879   4.664  15.732
33325W        W75336   6.059  12.714   9.452
33326W        W75337  14.759  22.511   9.292
33327W        W75338   3.489  10.274   2.438
33328W        W75339   4.289  21.721   2.238
33329W        W75340  18.219   2.874  15.542
33330W        W75341  23.879   2.524  11.942
33331W        W75342   8.399   7.504   8.112
33332W        W75343  16.669  10.234  15.032
33333W        W75344  13.969   0.044  11.802
33334W        W75345  10.579   3.754   2.722
33335W        W75346  16.519   7.184  15.202
33336W        W75347  23.599   5.464   2.842
33337W        W75348   5.459  23.061   0.788
33338W        W75349   6.839   4.154  10.342
33339W        W75350   2.869  16.364   8.572
33340W        W75351  23.749  17.504  11.572
33341W        W75352  19.409   9.304  10.022
33342W        W75353   6.529   0.464   9.242
33343W        W75354   5.659  11.704   0.198
33344W        W75355   9.089   6.734   8.162
33345W        W75356   7.519   7.404   1.878
33346W        W75357  20.139  17.394   1.798
33347W        W75358   0.349  21.681   1.288
33348W        W75359   5.529  17.334  10.232
33349W        W75360   8.249   8.024   2.782
33350W        W75361  22.499   6.314  11.392
33351W        W75362  13.869  23.291   1.208
33352W        W75363  12.809   3.944  10.532
33353W        W75364   1.779  24.671  10.162
33354W        W75365  17.959  25.481  10.242
33355W        W75366  15.499   5.034  15.642
33356W        W75367   0.919  22.181  10.872
33357W        W75368  23.279   4.344   8.392
33358W        W75369  24.239  24.571   2.962
33359W        W75370  20.259   7.404   0.398
33360W        W75371   3.899  19.244   4.882
33361W        W75372   0.489  13.294   9.192
33362W        W75373   8.829   4.644   4.362
33363W        W75374  17.459  17.554   3.842
33364W        W75375   3.169   3.914   1.288
33365W        W75376   4.389   6.904  10.142
33366W        W75377  12.739  15.444   3.422
33367W        W75378  19.999  14.844   9.052
33368W        W75379   8.529  12.794  14.462
33369W        W75380  16.479  17.294   0.168
33370W        W75381   7.929  10.244  14.552
33371W        W75382   8.609  19.004   8.372
33372W        W75383  17.719  13.524   0.378
33373W        W75384  22.629   7.154  15.212
33374W        W75385  11.389   9.894   9.862
33375W        W75386  19.709   7.544   8.582
33376W        W75387  23.609  19.914   8.122
33377W        W75388  23.949   7.064  11.292
33378W        W75389  10.999   0.524   9.712
33379W        W75390  22.619  13.064   7.802
33380W        W75391   2.419  23.551   8.672
33381W        W75392  12.139  19.844   8.742
33382W        W75393  13.439   6.834   2.438
33383W        W75394  23.209  24.351   9.922
33384W        W75395   4.539   2.214   3.302
33385W        W75396   7.949  13.434   1.718
33386W        W75397  25.289  20.374  10.562
33387W        W75398  14.329  13.264   1.468
33388W        W75399  10.819  13.554   0.318
33389W        W75400   5.509  20.644  10.372
33390W        W75401  17.619  12.014  14.502
33391W        W75402  14.609  25.031   3.212
33392W        W75403  19.199  25.121  11.742
33393W        W75404   3.509   5.594  10.222
33394W        W75405   6.529  24.591   9.662
33395W        W75406   9.479   2.384  14.412
33396W        W75407   2.929  18.474  15.602
33397W        W75408   3.869  13.214   9.982
33398W        W75409  23.719  19.704   9.052
33399W        W75410   8.059   9.304   1.768
33400W        W75411   4.399   4.804   0.758
33401W        W75412  24.789  19.704   7.762
33402W        W75413   8.099  11.034   9.522
33403W        W75414  12.179  15.474   3.512
33404W        W75415   1.719  10.414  15.482
33405W        W75416  22.369  20.594   8.642
33406W        W75417   1.329   5.154  15.842
33407W        W75418  16.219  12.864   2.592
33408W        W75419   0.409   3.734   1.178
33409W        W75420   0.579  24.951   1.948
33410W        W75421  25.209   8.894   7.112
33411W        W75422   6.649   8.234  11.292
33412W        W75423  18.409  10.264   3.402
33413W        W75424  19.079  17.834   0.488
33414W        W75425  23.819   2.834  10.472
33415W        W75426  25.009  12.984   9.292
33416W        W75427  15.719  22.811  10.242
33417W        W75428   1.679   6.384   6.432
33418W        W75429   4.499  12.424   4.102
33419W        W75430  16.639  16.134   4.432
33420W        W75431  20.769  20.684   3.192
33421W        W75432  19.699   9.374   0.908
33422W        W75433   2.389  22.651  11.162
33423W        W75434  24.689   9.824   0.598
33424W        W75435  10.849  11.564   1.528
33425W        W75436   9.129   7.484   3.352
33426W        W75437   8.749  11.674   2.772
33427W        W75438  16.629  21.601   1.918
33428W        W75439   4.839  17.714   8.422
33429W        W75440   4.869  25.161   3.312
33430W        W75441  18.699  22.191   8.042
33431W        W75442  19.859   5.034   3.112
33432W        W75443  24.529  16.564   2.882
33433W        W75444   8.939  16.554  15.762
33434W        W75445   2.399  14.524  10.702
33435W        W75446   6.369   6.184  10.432
33436W        W75447  11.559  19.074   2.882
33437W        W75448  24.869  10.504   2.488
33438W        W75449  12.109  12.514  14.332
33439W        W75450   5.079  10.454  15.782
33440W        W75451  10.229  10.874   1.918
33441W        W75452   3.319   5.814   8.982
33442W        W75453  15.769  13.824   2.078
33443W        W75454   9.519  11.244  15.562
33444W        W75455   4.569   9.294   0.588
33445W        W75456  13.689   8.684   8.072
33446W        W75457  20.139   1.444   3.252
33447W        W75458  25.309  21.771  10.652
33448W        W75459  14.589   0.224   1.958
33449W        W75460   4.529  13.484   2.862
33450W        W75461   1.779   2.284   1.298
33451W        W75462  22.699  23.891   7.992
33452W        W75463  15.899  10.664   9.252
33453W        W75464   3.139   8.954   7.522
33454W        W75465   1.509   9.784   2.078
33455W        W75466  22.089  17.084  10.812
33456W        W75467   4.519  11.084   2.722
33457W        W75468  18.059  11.624   3.192
33458W        W75469  19.669   1.094   0.988
33459W        W75470  13.019  24.591  10.322
33460W        W75471  23.559   2.944   7.652
33461W        W75472  20.059   9.874   2.138
33462W        W75473  24.269   1.284   8.082
33463W        W75474   3.509   4.464   3.752
33464W        W75475  13.669  10.724   2.158
33465W        W75476  12.499  13.434   3.532
33466W        W75477   1.989  19.334   8.382
33467W        W75478  25.519  10.894   1.958
33468W        W75479   7.989  10.024   0.538
33469W        W75480   4.719  22.351   8.602
33470W        W75481   8.859   2.574   2.662
33471W        W75482  14.149  16.764   0.118
33472W        W75483  15.059  15.054   0.878
33473W        W75484   1.789  21.004   0.838
33474W        W75485   6.729  13.374   2.288
33475W        W75486  18.539  12.634   1.158
33476W        W75487  20.989   0.954   8.582
33477W        W75488  19.439   9.534  10.782
33478W        W75489  18.719   0.274   2.428
33479W        W75490   3.769  18.764   8.592
33480W        W75491  13.889  17.494  15.532
33481W        W75492  22.039  18.014   0.618
33482W        W75493  23.049   2.014   7.432
33483W        W75494   0.069  14.044   8.602
33484W        W75495  12.579  20.014   9.432
33485W        W75496   0.849  17.194  11.352
33486W        W75497   0.959  23.421   2.872
33487W        W75498  23.509   9.824   1.388
33488W        W75499  22.439  12.964   1.598
33489W        W75500  12.099   6.354  14.902
33490W        W75501   7.019  20.794   2.378
33491W        W75502  11.859   9.654   0.388
33492W        W75503   4.349  23.411   9.022
33493W        W75504   7.949  10.164   3.952
33494W        W75505  16.409  22.171   9.582
33495W        W75506  18.109  22.641   8.512
33496W        W75507  15.729   9.854  10.182
33497W        W75508   6.429  11.564  10.272
33498W        W75509  10.369  15.374  14.992
33499W        W75510   9.249  17.544   2.882
33500W        W75511   9.029   8.844  15.432
33501W        W75512  18.999  19.304   1.528
33502W        W75513  10.429  19.974  14.602
33503W        W75514  19.559  17.664   8.282
33504W        W75515  16.369  10.574   4.032
33505W        W75516   7.709  10.314   0.918
33506W        W75517  24.589   6.454   1.688
33507W        W75518  13.619   7.414   1.428
33508W        W75519  13.389  20.674   2.852
33509W        W75520   6.639   7.404   9.642
33510W        W75521  11.259  14.804   1.448
33511W        W75522  18.429   5.334   3.782
33512W        W75523   8.099   0.454   9.902
33513W        W75524  23.689   0.724  10.792
33514W        W75525  18.989   1.024   9.722
33515W        W75526  21.869   3.244   0.048
33516W        W75527   3.159   5.374   1.408
33517W        W75528  14.879  12.344  10.552
33518W        W75529  10.449   0.154  11.352
33519W        W75530  16.999  12.534   2.672
33520W        W75531  18.549  12.574   8.962
33521W        W75532   6.639  20.654   9.462
33522W        W75533   6.729   5.794  15.222
33523W        W75534  25.429   4.644  11.942
33524W        W75535   0.659   6.344   9.122
33525W        W75536  17.709  20.334  11.012
33526W        W75537   9.609  25.221   2.802
33527W        W75538   7.259  15.104   3.322
33528W        W75539  24.089  11.824   0.598
33529W        W75540  22.289  22.351   3.772
33530W        W75541  11.609  18.274   4.922
33531W        W75542  20.459  22.351   1.888
33532W        W75543   1.909  19.374   2.792
33533W        W75544  24.049  19.204   9.092
33534W        W75545  16.169  23.641   8.032
33535W        W75546  22.379  15.374   1.748
33536W        W75547  17.579  13.524  15.212
33537W        W75548   9.849   1.004   8.172
33538W        W75549  21.379   4.454  15.042
33539W        W75550  10.089  12.194   0.348
33540W        W75551   3.809  18.704   0.418
33541W        W75552   5.759   5.574   0.198
33542W        W75553  12.569  23.331   7.922
33543W        W75554  11.079  13.574  10.002
33544W        W75555  25.169   5.564   8.652
33545W        W75556  23.849   2.524   2.008
33546W        W75557  13.829   6.484  15.132
33547W        W75558  15.859   4.434   3.332
33548W        W75559  21.679   5.824   0.828
33549W        W75560   2.649  12.524  11.182
33550W        W75561  15.769   9.284   2.792
33551W        W75562  16.129   6.744   3.942
33552W        W75563   2.949  12.894   0.498
33553W        W75564   6.959   2.364   9.472
33554W        W75565   8.309   5.544   0.858
33555W        W75566  14.899  19.654   9.372
33556W        W75567   0.399  23.501   8.352
33557W        W75568   8.409   5.014   3.442
33558W        W75569  23.679   2.584   7.962
33559W        W75570  14.079  21.024   0.168
33560W        W75571   4.709   8.594   2.562
33561W        W75572   8.199   8.654   0.958
33562W        W75573  24.909  22.441   3.792
33563W        W75574   3.109  24.291   7.692
33564W        W75575  18.149   0.744   8.312
33565W        W75576   6.669   7.894  15.332
33566W        W75577  11.389  17.694  10.202
33567W        W75578  13.089   8.424   0.228
33568W        W75579   4.769  18.454   2.702
33569W        W75580   0.989   4.714   6.962
33570W        W75581  18.919   2.964   4.122
33571W        W75582  11.789  22.201   2.572
33572W        W75583  19.699  20.924   1.188
33573W        W75584  16.769  16.144  15.532
33574W        W75585   1.639  12.714  14.942
33575W        W75586   4.279  17.074  12.132
33576W        W75587   2.379   7.214  11.122
33577W        W75588   2.009   8.164  15.782
33578W        W75589  20.339  20.024   7.172
33579W        W75590  12.409   8.434   0.298
33580W        W75591   9.709   3.174   7.592
33581W        W75592   1.889  14.594   3.712
33582W        W75593  12.589  15.034  10.242
33583W        W75594  17.799  12.564  15.632
33584W        W75595  21.099   3.924   0.128
33585W        W75596   4.949   0.534  11.012
33586W        W75597  13.549  18.884   9.032
33587W        W75598  18.609   3.194   3.172
33588W        W75599  24.259   6.244   2.982
33589W        W75600   6.719  24.841   3.742
33590W        W75601  17.129  16.184   8.742
33591W        W75602  16.969  21.254   3.122
33592W        W75603  19.099  15.334  11.532
33593W        W75604  14.459  15.774   2.682
33594W        W75605   3.379   8.034   7.422
33595W        W75606  11.439  23.761   2.552
33596W        W75607   7.579  22.321  10.572
33597W        W75608  15.789   6.024   0.578
33598W        W75609  17.249  19.134   8.202
33599W        W75610   7.709   2.834   8.892
33600W        W75611  16.319  20.964   2.338
33601W        W75612   1.379  17.434  10.042
33602W        W75613  16.909   8.544  10.422
33603W        W75614   9.209  24.111   7.982
33604W        W75615  12.089  10.604   9.652
33605W        W75616   6.509  22.311   9.782
33606W        W75617  12.579  12.644   9.862
33607W        W75618  19.829  24.911   8.852
33608W        W75619   1.169  25.531   1.578
33609W        W75620  17.409   4.854   0.908
33610W        W75621  19.319  10.604   2.842
33611W        W75622  21.369   0.434   9.262
33612W        W75623  17.219  25.241   0.068
33613W        W75624   4.169   3.144   1.398
33614W        W75625   5.209  11.284   1.058
33615W        W75626  14.189  16.594  14.722
33616W        W75627   8.109   4.844   9.932
33617W        W75628   7.769   6.344   1.578
33618W        W75629   3.139  17.144  10.562
33619W        W75630  13.029  14.644   2.882
33620W        W75631  12.689   5.394   8.932
33621W        W75632   8.609  14.994   1.358
33622W        W75633  22.999  14.984   8.892
33623W        W75634  16.809   2.834   9.142
33624W        W75635   1.079  11.794  11.082
33625W        W75636   2.269  10.194  10.182
33626W        W75637  13.269   1.184  15.622
33627W        W75638  17.959  19.624  12.112
33628W        W75639  12.909  21.401   2.732
33629W        W75640  20.429   9.084  11.462
33630W        W75641   1.489   0.534   7.742
33631W        W75642  16.519  10.904   0.558
33632W        W75643  24.159  18.934   0.878
33633W        W75644  25.559   8.914   9.422
33634W        W75645  11.359  12.474  14.692
33635W        W75646   9.659  10.664  10.412
33636W        W75647  22.799   0.014   1.858
33637W        W75648   8.699   6.384   9.912
33638W        W75649  24.069  16.394   7.522
33639W        W75650  21.709   0.544  10.702
33640W        W75651  10.509  11.914   4.482
33641W        W75652  15.129  16.144   8.702
33642W        W75653   4.409  10.704   7.902
33643W        W75654  10.019  15.324   9.142
33644W        W75655  11.899   2.444   0.028
33645W        W75656  22.399  12.014   1.608
33646W        W75657  24.179  15.604  12.302
33647W        W75658  13.159  12.734   3.852
33648W        W75659  17.229   3.854   8.312
33649W        W75660  21.539   8.814   7.932
33650W        W75661   1.819  14.104   0.948
33651W        W75662  21.459  22.071   2.088
33652W        W75663  19.519   4.334   2.458
33653W        W75664   8.919  13.044   1.548
33654W        W75665   8.499   2.874  15.202
33655W        W75666   2.159  12.854   2.028
33656W        W75667   0.489  21.104  10.562
33657W        W75668   1.819  11.574   2.468
33658W        W75669   3.959  21.204   8.782
33659W        W75670   0.969  17.094   3.542
33660W        W75671   4.779   2.234   7.872
33661W        W75672   8.869   2.474   1.148
33662W        W75673   0.819   8.064   9.682
33663W        W75674  16.699   1.714   3.902
33664W        W75675  17.889  13.774  10.032
33665W        W75676   8.319  10.264   0.818
33666W        W75677   8.009   8.754   7.192
33667W        W75678  17.029   9.664   7.772
33668W        W75679  17.139  16.974  15.282
33669W        W75680  16.379   9.864  10.692
33670W        W75681   4.409  19.554   2.388
33671W        W75682  15.039   4.324   3.942
33672W        W75683  12.159  23.921   2.782
33673W        W75684  18.089   9.874   0.908
33674W        W75685  24.059  21.851  11.482
33675W        W75686   3.599  16.294   1.128
33676W        W75687   9.719  14.884   2.188
33677W        W75688  14.549   9.054   3.382
33678W        W75689  12.929   5.814   4.442
33679W        W75690  24.719  25.061   9.552
33680W        W75691  15.049  15.064   1.568
33681W        W75692  20.579  12.264   3.312
33682W        W75693  12.529  22.221   1.838
33683W        W75694   5.349  19.054   9.102
33684W        W75695  19.519  24.901   8.082
33685W        W75696  15.139   1.464  10.452
33686W        W75697  16.729  12.974   2.722
33687W        W75698  22.239  11.174   3.472
33688W        W75699  15.979  11.424   4.382
33689W        W75700  16.249   0.354   0.788
33690W        W75701   7.799   4.984   9.432
33691W        W75702   4.789   6.234  10.582
33692W        W75703  20.599   7.244   1.758
33693W        W75704  14.999  16.824   9.162
33694W        W75705   0.589  10.454   1.508
33695W        W75706  24.079  23.931   2.488
33696W        W75707  25.469   4.054   9.772
33697W        W75708   7.929  17.814   9.272
33698W        W75709  19.829  18.614   8.292
33699W        W75710  24.959  14.974   8.232
33700W        W75711   6.179  21.054   8.782
33701W        W75712  17.839   3.254   0.718
33702W        W75713  11.079   6.194   8.922
33703W        W75714  18.279  24.171   8.312
33704W        W75715  17.909  18.084   8.252
33705W        W75716  21.929   6.694   2.298
33706W        W75717   9.329  22.111   2.692
33707W        W75718  12.419   4.674   9.422
33708W        W75719   4.849   6.324   3.612
33709W        W75720   0.289  15.804   1.818
33710W        W75721  24.679  18.104   7.712
33711W        W75722  15.669  17.644   8.572
33712W        W75723  16.739   9.424   2.872
33713W        W75724   5.579   0.494   1.218
33714W        W75725   7.959   4.404   7.762
33715W        W75726  17.569  13.344   3.392
33716W        W75727   0.669   3.424  10.632
33717W        W75728   5.829   3.064   9.782
33718W        W75729  25.209  17.834   1.068
33719W        W75730   7.819  13.784  10.592
33720W        W75731  23.909   3.144  10.902
33721W        W75732  16.039   2.214   8.052
33722W        W75733  23.939  20.884   7.462
33723W        W75734   6.069   9.334   2.428
33724W        W75735   1.649  20.584   1.698
33725W        W75736  21.109  21.064   8.802
33726W        W75737   2.859   6.114   9.792
33727W        W75738  17.869  17.924  15.582
33728W        W75739  11.229   3.394   1.298
33729W        W75740   8.589   9.134   2.692
33730W        W75741   0.989   0.234   3.082
33731W        W75742   8.439  19.574  15.162
33732W        W75743   6.849  15.484   0.228
33733W        W75744  15.719   5.184   9.322
33734W        W75745  15.549   4.064   3.052
33735W        W75746  22.809  13.194  10.272
33736W        W75747  10.799  14.504   5.412
33737W        W75748  18.719  18.304   1.788
33738W        W75749  12.989   5.214   3.762
33739W        W75750  22.399  11.854  11.232
33740W        W75751  10.839  22.111  11.632
33741W        W75752  19.779  23.641   8.692
33742W        W75753  17.969   3.274  11.252
33743W        W75754   4.109  18.034   3.922
33744W        W75755  17.709  20.334  11.612
33745W        W75756  11.299   6.404  14.942
33746W        W75757   4.339   7.674   9.402
33747W        W75758   0.209   3.614  10.542
33748W        W75759  10.819  14.724   2.388
33749W        W75760  20.469  20.044  11.262
33750W        W75761   8.819  22.531  10.932
33751W        W75762  14.329   6.204  15.022
33752W        W75763  10.259  25.151   0.948
33753W        W75764  13.879   0.104   1.648
33754W        W75765  17.869  14.344  15.012
33755W        W75766  25.359  13.194   9.672
33756W        W75767   3.489   4.044   0.288
33757W        W75768  14.349   1.594  15.062
33758W        W75769  19.469   0.344  12.002
33759W        W75770   9.159  10.154   9.632
33760W        W75771  19.679  25.481   2.338
33761W        W75772   5.309  10.154   0.218
33762W        W75773  22.399  16.814   9.062
33763W        W75774  21.979   3.064   9.522
33764W        W75775   3.309   8.274   0.238
33765W        W75776   4.609  19.484   7.982
33766W        W75777   5.959   3.354   1.528
33767W        W75778  24.569   0.434   2.932
33768W        W75779   8.369  19.674   1.828
33769W        W75780   0.569  19.694  10.342
33770W        W75781  15.049   3.134  11.022
33771W        W75782  13.629   0.044   1.228
33772W        W75783  24.839   0.364   1.088
33773W        W75784   6.179   2.404   2.752
33774W        W75785   1.609   0.434   0.988
33775W        W75786  25.389  21.811  11.622
33776W        W75787  15.179   0.014   0.768
33777W        W75788  18.749  17.444   9.222
33778W        W75789   9.949   5.534   1.548
33779W        W75790  22.649  22.841   1.268
33780W        W75791  19.139  15.704   7.862
33781W        W75792   6.449   3.494   3.672
33782W        W75793  15.509  20.694   8.952
33783W        W75794  17.769  17.694  10.112
33784W        W75795   1.619   0.134  10.242
33785W        W75796   6.579   1.954   8.782
33786W        W75797  11.489  12.104   0.928
33787W        W75798  19.869   8.494   1.638
33788W        W75799  22.459  17.204   9.582
33789W        W75800  11.799  23.321   3.552
33790W        W75801  25.309   4.184  15.652
33791W        W75802  11.859  11.894   5.542
33792W        W75803   1.709   7.514  14.862
33793W        W75804  10.119  21.701   0.928
33794W        W75805  10.069   5.174   8.312
33795W        W75806  23.769  20.934   8.432
33796W        W75807   4.349  14.204  10.812
33797W        W75808  22.789  21.084  12.382
33798W        W75809  14.579   1.274  11.332
33799W        W75810   1.399  21.551   1.458
33800W        W75811   0.909   3.684   9.482
33801W        W75812  19.779  25.161  11.562
33802W        W75813   6.569  24.961   0.228
33803W        W75814   8.359  17.394   2.992
33804W        W75815  14.789   8.984   2.348
33805W        W75816  11.709  10.454   4.592
33806W        W75817  23.299   9.584   7.082
33807W        W75818  20.009  20.124   9.662
33808W        W75819  18.579  20.694  11.732
33809W        W75820  17.229   6.084  10.852
33810W        W75821  13.089  25.471  15.702
33811W        W75822  20.579  22.691   0.648
33812W        W75823   1.129   3.764   1.788
33813W        W75824  19.209  25.361   1.128
33814W        W75825  10.909  10.524   0.558
33815W        W75826   4.049   0.774   3.352
33816W        W75827  16.259  14.784  15.272
33817W        W75828   0.439   4.144  15.502
33818W        W75829  15.059  12.114   9.522
33819W        W75830   4.039  10.794   2.498
33820W        W75831  20.709  21.731   9.132
33821W        W75832   5.499  13.264   1.138
33822W        W75833  20.519  12.384   8.632
33823W        W75834  20.859  14.544   9.982
33824W        W75835   1.769  11.534   1.128
33825W        W75836   1.729  18.794   2.288
33826W        W75837   5.239  23.771   1.998
33827W        W75838  18.869  24.261  15.702
33828W        W75839  11.119  17.684   3.132
33829W        W75840  14.909   1.024  15.712
33830W        W75841  13.119   5.114  14.312
33831W        W75842  12.689  20.074   0.278
33832W        W75843   4.169  15.104   1.208
33833W        W75844  14.239  14.174   9.842
33834W        W75845  19.309  11.464   1.608
33835W        W75846   3.109  16.574   9.412
33836W        W75847  12.549   8.164   1.068
33837W        W75848  24.599  23.551   9.212
33838W        W75849  21.929  11.904   3.092
33839W        W75850  16.389  19.814   2.952
33840W        W75851  12.779  20.554  10.562
33841W        W75852  24.759   7.474   1.418
33842W        W75853   2.669   3.934   9.332
33843W        W75854  20.579  24.061   1.868
33844W        W75855  22.589  17.334   8.192
33845W        W75856   2.149   7.694  15.842
33846W        W75857  15.999  10.544   1.078
33847W        W75858  20.739  13.564   8.052
33848W        W75859   3.899  23.911   9.742
33849W        W75860  10.909  13.764   4.422
33850W        W75861  11.849  23.681  11.082
33851W        W75862  14.379  19.754   9.962
33852W        W75863  12.719   0.874   9.552
33853W        W75864   3.689  11.204   2.622
33854W        W75865   7.269  17.884  10.572
33855W        W75866  19.459  12.674   4.072
33856W        W75867  21.549  16.974   1.428
33857W        W75868   2.219  20.644   2.902
33858W        W75869  22.259  22.931   2.812
33859W        W75870   1.669  13.044  15.802
33860W        W75871   9.179  10.984  14.472
33861W        W75872  23.959  20.334   7.592
33862W        W75873  22.519  24.871  10.182
33863W        W75874  11.429  19.524   3.052
33864W        W75875  17.409  13.864   0.518
33865W        W75876  16.869  11.544   7.992
33866W        W75877  11.899  16.944   1.268
33867W        W75878  16.449   4.494   9.862
33868W        W75879  15.229  20.774   9.872
33869W        W75880   6.609  12.664   9.502
33870W        W75881  19.369  12.114   1.568
33871W        W75882   0.819  19.734   9.882
33872W        W75883  12.939  10.654  14.802
33873W        W75884  17.699  23.751   8.872
33874W        W75885   0.909  16.424  11.392
33875W        W75886   8.599  23.301   7.882
33876W        W75887   1.689   2.414   7.982
33877W        W75888   4.589   3.424   4.182
33878W        W75889  23.039  23.401   1.838
33879W        W75890  15.719   2.804   3.582
33880W        W75891  14.659  24.181  15.712
33881W        W75892   7.369   9.134   9.742
33882W        W75893  10.719  13.354  15.182
33883W        W75894   0.259  17.544  11.122
33884W        W75895  17.569  24.391   1.658
33885W        W75896  11.489  21.951  11.332
33886W        W75897   4.549   6.774   7.472
33887W        W75898   7.019  16.414   9.142
33888W        W75899   6.489   8.974  15.412
33889W        W75900  22.089  17.144   0.078
33890W        W75901   9.699  10.594   0.508
33891W        W75902   3.129  22.291   0.468
33892W        W75903  10.489  25.511   8.502
33893W        W75904  14.209   7.524  10.002
33894W        W75905  11.779  23.981   9.622
33895W        W75906   3.879  16.014   9.712
33896W        W75907   6.789  10.644   0.428
33897W        W75908  16.889   5.204   9.352
33898W        W75909  15.789   8.244   3.072
33899W        W75910   5.969  24.951   8.952
33900W        W75911  20.589  20.804   1.528
33901W        W75912  15.849   1.004   2.552
33902W        W75913   5.619   0.124  10.422
33903W        W75914  24.929   9.794  11.042
33904W        W75915  11.779   0.674  15.102
33905W        W75916  22.789   9.034   1.268
33906W        W75917   5.989  12.044  10.402
33907W        W75918  23.129   0.764   9.182
33908W        W75919  14.759  20.224   3.562
33909W        W75920   9.699   9.954   2.532
33910W        W75921   5.429  19.314  11.012
33911W        W75922  14.229  17.724  10.422
33912W        W75923   6.529   6.294   2.418
33913W        W75924  20.129  22.551   3.462
33914W        W75925   8.549   7.744   9.142
33915W        W75926  21.479  16.804   8.562
33916W        W75927   1.449  10.624   9.542
33917W        W75928   0.779  20.374   2.752
33918W        W75929  22.699  17.804   1.958
33919W        W75930   5.279   0.084  15.072
33920W        W75931  10.349  20.444   9.112
33921W        W75932  20.739  18.164   1.538
33922W        W75933   2.469  16.554   0.958
33923W        W75934  21.419  15.334   7.952
33924W        W75935  17.099  15.504   0.908
33925W        W75936  14.829  21.601  10.992
33926W        W75937   7.569  13.944  11.222
33927W        W75938   1.799  12.924   3.792
33928W        W75939   9.699  16.894  10.492
33929W        W75940  17.549  15.194   7.712
33930W        W75941   6.189   2.124  10.362
33931W        W75942  16.349  13.824   0.668
33932W        W75943   7.249  25.021  15.732
33933W        W75944  19.789  20.004   1.088
33934W        W75945   1.579  22.081   3.682
33935W        W75946   5.679  15.774   2.318
33936W        W75947  19.079  18.984   2.428
33937W        W75948  12.869  25.311   0.678
33938W        W75949   2.349  12.954   9.152
33939W        W75950   7.149  13.234  10.532
33940W        W75951  24.729  19.164  10.282
33941W        W75952   1.879  22.961   2.922
33942W        W75953  23.539   5.424   8.902
33943W        W75954   2.179  10.784   2.972
33944W        W75955  12.959  11.044   9.382
33945W        W75956  13.369   3.234   0.318
33946W        W75957   6.259   3.144   0.598
33947W        W75958   8.779  17.844  10.372
33948W        W75959  17.719  25.551   3.802
33949W        W75960  12.619   2.314   1.988
33950W        W75961  14.279   2.134   3.562
33951W        W75962   0.389  20.194   1.948
33952W        W75963  20.299   5.634   0.828
33953W        W75964   7.659  16.084   0.338
33954W        W75965   2.439  19.404   8.202
33955W        W75966   2.429  15.114   1.798
33956W        W75967   9.019   6.024  10.332
33957W        W75968  23.949  15.104   1.948
33958W        W75969   1.919   8.354   1.668
33959W        W75970  15.309  14.014   3.732
33960W        W75971  23.369  17.034  11.682
33961W        W75972   4.539  19.504  10.072
33962W        W75973   9.169  11.344   9.432
33963W        W75974  20.679  23.221   1.948
33964W        W75975  10.329   9.484   0.738
33965W        W75976  16.449  18.754   9.202
33966W        W75977  23.059   6.454   8.092
33967W        W75978  18.639   9.134   2.722
33968W        W75979  17.659   8.804   0.518
33969W        W75980  25.529  23.401   0.658
33970W        W75981  18.559   0.054   9.422
33971W        W75982   2.859  16.744   0.628
33972W        W75983  12.759  12.524  13.552
33973W        W75984  23.019  24.071   2.532
33974W        W75985   3.469  22.061  10.922
33975W        W75986   7.489   1.254   0.968
33976W        W75987   2.389  12.924   0.978
33977W        W75988  24.399  22.261  10.582
33978W        W75989  12.919  12.614   1.178
33979W        W75990  21.459  12.494   1.208
33980W        W75991  25.579  18.484   3.022
33981W        W75992  10.069   6.544  14.712
33982W        W75993   5.929  24.331   1.298
33983W        W75994  10.059   2.024  14.992
33984W        W75995   1.659  21.274   0.448
33985W        W75996   3.749  24.911   8.772
33986W        W75997  22.679  14.984   1.588
33987W        W75998  18.309  20.854  10.062
33988W        W75999   2.949  14.414   7.992
33989W        W76000  10.889  17.894   0.858
33990W        W76001  13.259   8.904   2.238
33991W        W76002  22.559  20.614   9.862
33992W        W76003  11.809   4.884   9.992
33993W        W76004  10.209   1.574   0.198
33994W        W76005   9.889  12.484   9.472
33995W        W76006  18.809  16.534  10.192
33996W        W76007  20.369   1.914   9.612
33997W        W76008  20.099  19.764   2.488
33998W        W76009  19.219   6.814   9.592
33999W        W76010  16.779  19.364   2.962
34000W        W76011   7.939  18.244   9.922
34001W        W76012   5.209   5.194   8.242
34002W        W76013  23.129  19.684   9.392
34003W        W76014   2.999  25.501   9.152
34004W        W76015   0.659  19.194   0.968
34005W        W76016  14.459  14.804  15.172
34006W        W76017  23.969   0.674   2.208
34007W        W76018   5.489  15.074   9.892
34008W        W76019   2.979  18.464   8.132
34009W        W76020  21.479  23.831   9.982
34010W        W76021  24.999  12.614  15.852
34011W        W76022   6.139   0.394   9.572
34012W        W76023   9.119   8.374   1.778
34013W        W76024  19.179  21.761   1.078
34014W        W76025  21.789   7.844   9.622
34015W        W76026   8.329  25.461   0.798
34016W        W76027  13.529   9.604   9.842
34017W        W76028  19.559   5.324   2.872
34018W        W76029  24.179  18.214   8.502
34019W        W76030  23.169  16.604   8.662
34020W        W76031  19.399  17.244   9.942
34021W        W76032   9.599   5.224  15.682
34022W        W76033   5.769  24.481  11.102
34023W        W76034  24.309  17.134   2.962
34024W        W76035  22.299  18.284  12.842
34025W        W76036  16.649  16.274   8.792
34026W        W76037   3.639   2.734   9.802
34027W        W76038  19.619   0.554  15.832
34028W        W76039   9.319  22.011   9.782
34029W        W76040  10.079  24.731   1.458
34030W        W76041  19.419  20.414  11.902
34031W        W76042   6.409  19.364   2.378
34032W        W76043   6.869  17.604  10.302
34033W        W76044  22.089  16.104   1.788
34034W        W76045   6.479  16.354   2.238
34035W        W76046   2.029   6.594   7.812
34036W        W76047  24.389   4.804   9.492
34037W        W76048   8.439  25.101   2.168
34038W        W76049  12.289  23.731   9.432
34039W        W76050   3.749   2.954   8.452
34040W        W76051  13.039   0.184   2.008
34041W        W76052  23.979  10.584  12.002
34042W        W76053  20.919  11.124   9.992
34043W        W76054  23.729   4.484   1.498
34044W        W76055  10.149  14.004  15.592
34045W        W76056  25.219  10.384   1.648
34046W        W76057  23.629  13.804  11.052
34047W        W76058  15.339  25.091   0.888
34048W        W76059  24.019  24.521   9.132
34049W        W76060  17.489   4.644   9.292
34050W        W76061  12.509  18.154   3.942
34051W        W76062  18.959  12.234   2.278
34052W        W76063   2.649  22.921   1.058
34053W        W76064  24.589   5.594   8.752
34054W        W76065  20.419   3.264   9.642
34055W        W76066  24.949  20.634  11.332
34056W        W76067  19.459  22.801   1.338
34057W        W76068  23.939  14.144   9.712
34058W        W76069   8.209  22.031   1.748
34059W        W76070  12.049   0.014   1.088
34060W        W76071   8.959  20.264   1.288
34061W        W76072   5.349  10.844   0.048
34062W        W76073   9.219   6.324   0.618
34063W        W76074  21.489  15.644   3.042
34064W        W76075  11.679   5.964   2.852
34065W        W76076  19.229   4.754  11.422
34066W        W76077  21.759  13.214   0.448
34067W        W76078   6.549  22.471  11.102
34068W        W76079  18.859  11.474   2.822
34069W        W76080  16.359   9.234  14.532
34070W        W76081  10.649  10.224  10.912
34071W        W76082   9.259   0.324   1.838
34072W        W76083  20.029   3.214   8.872
34073W        W76084  10.549   0.534   2.962
34074W        W76085  13.949  25.491   3.402
34075W        W76086  18.549  10.474   2.148
34076W        W76087   9.789  20.574  15.662
34077W        W76088  19.569  19.394  12.292
34078W        W76089  11.419   9.494  10.182
34079W        W76090  17.029   9.384   0.178
34080W        W76091  16.349  19.114  15.792
34081W        W76092   3.699  24.331   8.142
34082W        W76093   2.359  18.004  11.262
34083W        W76094  21.139   6.574   0.418
34084W        W76095   5.929   0.534   8.022
34085W        W76096   7.069  21.771   0.768
34086W        W76097   9.669  10.284   9.602
34087W        W76098  11.699  19.374   4.102
34088W        W76099  18.969  25.281   1.588
34089W        W76100  13.819  12.564   1.768
34090W        W76101  19.139   2.234   9.202
34091W        W76102  20.049  18.094  11.962
34092W        W76103   5.569  18.474   1.368
34093W        W76104  10.229  24.611   8.502
34094W        W76105   3.369  21.621   0.208
34095W        W76106  21.209  19.634   9.062
34096W        W76107  15.459   7.964   1.018
34097W        W76108  19.119  19.524   8.002
34098W        W76109  13.499  13.014   3.522
34099W        W76110  16.329   2.374   2.258
34100W        W76111  19.009  11.624   8.942
34101W        W76112  17.029   5.194   0.738
34102W        W76113  22.009  13.234   1.688
34103W        W76114   8.389  17.444  10.212
34104W        W76115  11.209  23.061   0.738
34105W        W76116  13.819   1.604  10.082
34106W        W76117  14.389  14.094   4.862
34107W        W76118  11.319  18.614   3.202
34108W        W76119   1.199  18.354  12.532
34109W        W76120  21.239  20.264   9.912
34110W        W76121   2.899  15.934   2.168
34111W        W76122  21.139  12.664   3.932
34112W        W76123   8.709  23.201   3.032
34113W        W76124   3.049   2.334   7.852
34114W        W76125  23.279  12.034   0.438
34115W        W76126   0.021  11.824   1.158
34116W        W76127  11.839  18.894   9.482
34117W        W76128  17.139  11.674   4.552
34118W        W76129  14.849   2.174   3.512
34119W        W76130  17.539  18.434   7.722
34120W        W76131   2.639  12.544   3.732
34121W        W76132  15.129  25.031   9.862
34122W        W76133   2.629  10.304   8.722
34123W        W76134   0.309  15.034   4.172
34124W        W76135   1.279  23.141   8.122
34125W        W76136  12.839  23.241   1.448
34126W        W76137  14.969   0.404  10.912
34127W        W76138  19.559  20.024   3.602
34128W        W76139  19.749  10.994   0.898
34129W        W76140   1.619   3.854   7.982
34130W        W76141   0.269  12.484   9.292
34131W        W76142  15.969  15.874   9.202
34132W        W76143  24.379  13.484   3.602
34133W        W76144  15.479  21.711   2.188
34134W        W76145  11.629  20.294   2.018
34135W        W76146  13.239  16.144   9.832
34136W        W76147  23.179  25.381   1.528
34137W        W76148  17.439   2.674   7.792
34138W        W76149  16.169  23.581   4.202
34139W        W76150  21.209   5.664   8.482
34140W        W76151   6.519   1.234   0.538
34141W        W76152  20.499  15.854  11.412
34142W        W76153   3.099  24.591  10.902
34143W        W76154   6.859  18.364  15.452
34144W        W76155  10.479   6.024   8.572
34145W        W76156  20.979   8.344   2.278
34146W        W76157  16.759   2.694  10.402
34147W        W76158  15.549   9.544   2.358
34148W        W76159  12.229   9.004   2.562
34149W        W76160  20.379   0.774  11.242
34150W        W76161   4.119  12.994   0.568
34151W        W76162  12.089   4.744   8.282
34152W        W76163   0.189  11.044   0.658
34153W        W76164   2.809  20.904  10.772
34154W        W76165  17.779  21.294  15.492
34155W        W76166   0.119  15.794   8.342
34156W        W76167  21.329  20.874   1.048
34157W        W76168  12.739  17.334  10.852
34158W        W76169  23.179   0.254  11.712
34159W        W76170  19.689  25.541   9.922
34160W        W76171   3.249  25.391   1.918
34161W        W76172  10.899  10.114   4.142
34162W        W76173  23.049  18.974  10.622
34163W        W76174  24.719  15.184  10.802
34164W        W76175   3.529  20.034   8.702
34165W        W76176   0.379  21.951   9.042
34166W        W76177   2.249   9.354  10.792
34167W        W76178   1.579   8.204   8.382
34168W        W76179   0.309  23.471  10.472
34169W        W76180  19.699   0.244  12.932
34170W        W76181  13.689  13.994   3.832
34171W        W76182   9.599  15.254   4.142
34172W        W76183   1.809  23.701   2.862
34173W        W76184  24.309   2.914   1.878
34174W        W76185  23.819   9.014   0.328
34175W        W76186  24.919   5.944   7.292
34176W        W76187  22.819   0.614   8.562
34177W        W76188  24.009  25.161   9.452
34178W        W76189  17.379  18.984   2.418
34179W        W76190   6.449   9.374  15.092
34180W        W76191   0.349  16.984   9.822
34181W        W76192  18.909  25.171   8.762
34182W        W76193  20.059  19.724  10.522
34183W        W76194   7.999  22.681   2.892
34184W        W76195   6.959  17.644   3.422
34185W        W76196  17.859  11.844   0.508
34186W        W76197   6.579   0.764   9.612
34187W        W76198  15.049  22.601  11.232
34188W        W76199  18.979   5.224  10.132
34189W        W76200  24.509   5.654   9.742
34190W        W76201   1.269   3.304   9.432
34191W        W76202   6.769   3.964   8.002
34192W        W76203  23.039   2.044   3.462
34193W        W76204  12.389  23.101   3.472
34194W        W76205  20.809   6.244   1.358
34195W        W76206  24.619  23.891  11.672
34196W        W76207  14.079  18.044   2.902
34197W        W76208  10.349  24.821   0.428
34198W        W76209   6.729   3.584  14.312
34199W        W76210   3.449   5.004  15.832
34200W        W76211  17.469   9.654  15.322
34201W        W76212  18.369  24.811   9.132
34202W        W76213   8.599   7.924   3.812
34203W        W76214  14.939  10.794   9.812
34204W        W76215  17.409  19.854  11.492
34205W        W76216   2.429   4.324  10.122
34206W        W76217  17.189  24.401  10.242
34207W        W76218   1.579  12.914  10.652
34208W        W76219   2.299   9.594   2.438
34209W        W76220  16.829  18.174   3.742
34210W        W76221  10.189  15.834   2.832
34211W        W76222   1.309   6.244   8.702
34212W        W76223  23.379  17.104  10.772
34213W        W76224   2.819   1.594  11.012
34214W        W76225  14.419  21.224   0.538
34215W        W76226  17.969  22.121   1.028
34216W        W76227  19.809  11.894   3.682
34217W        W76228  25.379  14.704   1.148
34218W        W76229   3.809   8.594  15.062
34219W        W76230   6.749  18.584   9.382
34220W        W76231  13.979   0.114  15.322
34221W        W76232  18.249  16.774   0.178
34222W        W76233  22.019   6.944   8.612
34223W        W76234   1.319  22.921   9.822
34224W        W76235  12.399  20.514   8.572
34225W        W76236  17.879  16.334   3.252
34226W        W76237   2.449  24.381   1.238
34227W        W76238  16.619  24.851  11.302
34228W        W76239  17.089   5.424  15.332
34229W        W76240  13.979   2.564  10.412
34230W        W76241  23.039  24.851   9.302
34231W        W76242   0.619   0.374  10.252
34232W        W76243  24.809  11.854   2.932
34233W        W76244  14.539  23.921  10.872
34234W        W76245  24.299   0.764   9.462
34235W        W76246  19.159  20.374   9.542
34236W        W76247  20.059  22.171   3.732
34237W        W76248   0.409   9.764  10.182
34238W        W76249  18.279  15.454  10.612
34239W        W76250  13.189  20.184   2.922
34240W        W76251   1.739   2.024   2.662
34241W        W76252  18.689  13.084  10.382
34242W        W76253   1.649   7.564  15.562
34243W        W76254  20.249   1.134   0.588
34244W        W76255  16.719  11.694   3.012
34245W        W76256   5.179   4.504   0.538
34246W        W76257  10.759   2.654  15.282
34247W        W76258   6.209  10.854   7.872
34248W        W76259  18.529  14.974   2.428
34249W        W76260  20.509  14.344   8.382
34250W        W76261   1.049  24.871  10.962
34251W        W76262  25.249  11.144   3.172
34252W        W76263  20.259   4.564   8.202
34253W        W76264  19.459  11.164   2.932
34254W        W76265   8.169   7.104  15.442
34255W        W76266   7.149   6.714   0.278
34256W        W76267   0.519  18.684   8.422
34257W        W76268  21.509   5.594   2.682
34258W        W76269  14.389   7.354   2.642
34259W        W76270  17.249  18.974  10.472
34260W        W76271   8.269  17.044  10.532
34261W        W76272   2.299   7.644   7.742
34262W        W76273  13.019  17.324   1.998
34263W        W76274  23.399  19.614   0.968
34264W        W76275  22.399   3.974  10.232
34265W        W76276  24.029  14.944   8.142
34266W        W76277  24.529   5.514   1.168
34267W        W76278   8.799  18.784   3.532
34268W        W76279  10.049   6.574  10.292
34269W        W76280   3.049   5.174  11.532
34270W        W76281   8.229  12.374   2.832
34271W        W76282  23.479  15.984  10.212
34272W        W76283   9.039   8.484   1.098
34273W        W76284  15.819  14.544  10.082
34274W        W76285  14.409  21.701  11.312
34275W        W76286  17.449  23.191   2.852
34276W        W76287  12.589  19.574  10.642
34277W        W76288  13.379  23.031  10.942
34278W        W76289   3.709  14.404   2.702
34279W        W76290  15.349   1.134   1.198
34280W        W76291   9.909   5.264   2.552
34281W        W76292   5.669  20.574   0.798
34282W        W76293  20.969   7.804  10.252
34283W        W76294   2.599  10.154   1.038
34284W        W76295   4.249   7.734   2.952
34285W        W76296  10.809   5.994   2.388
34286W        W76297   5.659   2.444   3.452
34287W        W76298  21.999  24.051   3.702
34288W        W76299   2.799   1.244  14.902
34289W        W76300  10.959   3.404   3.612
34290W        W76301   5.329  22.071   0.298
34291W        W76302   6.849  19.894   2.018
34292W        W76303   5.579   8.714   1.268
34293W        W76304  17.219  21.074  11.432
34294W        W76305  13.359   9.844   2.378
34295W        W76306   1.409   7.064   0.238
34296W        W76307  13.689   1.474   3.222
34297W        W76308  12.609   4.444   7.442
34298W        W76309  24.599  24.161   2.992
34299W        W76310  18.009  18.444   1.298
34300W        W76311   6.599   9.604  10.162
34301W        W76312  17.039   8.884   0.628
34302W        W76313   9.629  20.914   4.922
34303W        W76314   3.439  19.734   8.332
34304W        W76315  17.579  16.744   3.052
34305W        W76316   9.969  21.064   9.532
34306W        W76317   4.079   3.974   2.752
34307W        W76318  15.129   4.894   2.632
34308W        W76319   0.729   5.244   7.392
34309W        W76320  12.899   9.544  14.452
34310W        W76321   1.369  20.894   0.138
34311W        W76322  16.269   3.484   0.718
34312W        W76323   7.119  10.664  15.542
34313W        W76324  14.379  24.601   3.442
34314W        W76325   8.239   9.824   3.072
34315W        W76326  20.789  13.494   3.362
34316W        W76327   7.499  21.064   8.922
34317W        W76328   2.209   6.834   2.672
34318W        W76329  12.509  22.561   4.732
34319W        W76330   6.599  16.364   2.762
34320W        W76331   3.509  19.884   3.512
34321W        W76332  19.079   2.454   3.342
34322W        W76333   7.419   6.164   0.698
34323W        W76334  18.679   4.434   3.592
34324W        W76335  21.989   8.924  15.772
34325W        W76336   4.359   7.224   9.232
34326W        W76337   7.169  14.894  14.882
34327W        W76338  25.529  22.241   3.202
34328W        W76339  22.819   7.024   9.832
34329W        W76340  21.429  23.601  12.562
34330W        W76341   7.669  16.504   3.842
34331W        W76342   3.589   7.334   9.972
34332W        W76343  12.369  19.874   3.812
34333W        W76344   4.309  10.584   6.862
34334W        W76345   1.379  10.824   2.772
34335W        W76346  21.259   7.444   8.172
34336W        W76347  16.959   8.024  15.372
34337W        W76348   6.769  23.301   1.198
34338W        W76349   4.839  16.664  10.492
34339W        W76350   4.789   2.434   9.152
34340W        W76351  24.559   5.174   1.968
34341W        W76352  25.029   4.644  10.302
34342W        W76353  12.099   8.984  10.422
34343W        W76354  23.399  16.874  11.192
34344W        W76355  20.739  14.294  15.572
34345W        W76356  18.109   9.264   9.922
34346W        W76357   6.029  19.144  15.812
34347W        W76358  19.449  11.894   8.662
34348W        W76359   0.119  11.354   2.932
34349W        W76360  14.749  22.221   2.842
34350W        W76361   1.629  20.094   7.802
34351W        W76362   2.689  23.431  11.032
34352W        W76363   5.889   6.824   9.182
34353W        W76364  19.789  11.534  10.092
34354W        W76365   4.579   8.874  11.162
34355W        W76366  20.209  22.341  11.242
34356W        W76367  16.509   6.464  10.122
34357W        W76368   9.289  20.504   9.812
34358W        W76369  16.719   5.674   2.612
34359W        W76370  25.079  20.284   0.618
34360W        W76371   3.889  18.634   3.082
34361W        W76372  15.329  20.414   4.252
34362W        W76373  19.899  14.744   3.192
34363W        W76374  23.339   7.264   1.408
34364W        W76375  13.359  14.714   3.462
34365W        W76376  11.419   9.384   9.622
34366W        W76377   9.539   8.484  10.382
34367W        W76378  11.259  13.254  15.332
34368W        W76379  19.229  13.654  10.162
34369W        W76380   4.719  22.531   9.102
34370W        W76381   3.449  12.014  10.972
34371W        W76382  15.659  20.814   2.128
34372W        W76383  22.209   2.114   9.622
34373W        W76384  22.269   0.814   8.632
34374W        W76385  13.319   5.214   0.988
34375W        W76386   5.959  15.194   1.408
34376W        W76387  22.529  18.284   9.952
34377W        W76388   2.079  15.864   8.052
34378W        W76389  13.389  25.191   2.572
34379W        W76390  20.089   1.464   8.792
34380W        W76391   9.179   5.924   1.758
34381W        W76392  11.859  23.711   8.432
34382W        W76393   4.589  14.884   0.868
34383W        W76394   1.349  13.544   8.262
34384W        W76395  12.999  13.644   2.088
34385W        W76396   7.339   7.444   0.828
34386W        W76397   7.989  13.264   9.452
34387W        W76398  20.889  11.964   1.548
34388W        W76399   5.609  24.131   9.072
34389W        W76400   1.889  22.411   2.932
34390W        W76401  13.909   9.584  14.652
34391W        W76402  23.469   6.044   1.868
34392W        W76403  12.139  18.754  10.232
34393W        W76404   4.079  18.884   1.588
34394W        W76405  23.449  14.444   3.562
34395W        W76406  13.299   1.444   2.852
34396W        W76407   6.309   0.444  15.872
34397W        W76408  22.249  12.534   7.152
34398W        W76409  22.969  18.504   1.528
34399W        W76410  24.489   6.894   2.008
34400W        W76411  21.369   3.304   7.702
34401W        W76412  10.209  23.721   8.542
34402W        W76413  17.139   8.834   1.808
34403W        W76414   3.629  22.621  10.982
34404W        W76415   5.959  24.781   1.488
34405W        W76416  24.859   6.444   7.462
34406W        W76417  14.119  25.581   1.228
34407W        W76418   1.059   8.634  10.542
34408W        W76419  21.639   0.124   7.782
34409W        W76420  20.619  14.634  10.932
34410W        W76421  19.169   5.064   4.112
34411W        W76422   7.349   9.334   0.608
34412W        W76423  18.569  10.894   9.562
34413W        W76424   2.659  13.694  15.292
34414W        W76425   3.969   7.184   1.668
34415W        W76426   3.959   2.004   1.508
34416W        W76427  23.489  12.384  11.642
34417W        W76428   2.879  11.554  11.372
34418W        W76429   3.139  11.614   8.322
34419W        W76430   0.159   8.094  11.002
34420W        W76431   1.329  12.874   7.732
34421W        W76432   3.429  15.034   8.362
34422W        W76433   5.099   3.814   1.248
34423W        W76434  14.779   5.784   0.128
34424W        W76435  14.189   8.914   8.962
34425W        W76436  18.769  12.914  11.102
34426W        W76437  22.819  19.174  10.102
34427W        W76438  21.479   6.924   9.922
34428W        W76439   2.089  24.331   9.272
34429W        W76440   7.859  21.881   3.692
34430W        W76441  14.789  15.884   3.752
34431W        W76442   5.909   5.474   8.002
34432W        W76443   5.019  17.014   9.502
34433W        W76444   0.959   0.844  11.332
34434W        W76445  11.549  10.004   0.118
34435W        W76446  15.869  25.151   0.308
34436W        W76447  22.709   5.824   3.912
34437W        W76448   4.799   3.474   3.522
34438W        W76449   2.719   2.084   1.218
34439W        W76450  16.539  11.214  14.532
34440W        W76451  14.849   9.394   3.622
34441W        W76452   8.269  20.404   1.898
34442W        W76453  11.529  10.864   1.558
34443W        W76454  25.109  20.224   2.318
34444W        W76455  15.049   0.504   3.302
34445W        W76456   1.599   3.444   9.792
34446W        W76457  10.189  16.384   2.882
34447W        W76458   7.919   9.134  14.602
34448W        W76459  24.779  22.031  10.382
34449W        W76460  13.719   4.414   1.338
34450W        W76461   9.359  19.544   2.258
34451W        W76462  11.439   7.054   9.852
34452W        W76463  11.079  21.731   0.968
34453W        W76464   0.149  21.641   1.718
34454W        W76465   6.349  15.604   1.558
34455W        W76466  21.239  21.451  10.272
34456W        W76467  24.999  22.981   3.552
34457W        W76468  22.839  10.054   0.348
34458W        W76469   2.159  17.114   8.962
34459W        W76470  12.189  10.764   3.802
34460W        W76471   9.289  22.731   4.572
34461W        W76472   4.459   3.184   3.312
34462W        W76473  11.889  18.694   2.872
34463W        W76474  17.589   1.754   2.682
34464W        W76475   6.999   9.854   3.062
34465W        W76476   7.269  24.711  11.762
34466W        W76477  18.179   4.724  11.992
34467W        W76478   2.079  15.904   0.258
34468W        W76479  10.549  15.354   9.182
34469W        W76480  24.209  24.821  12.152
34470W        W76481  12.479   2.674  15.462
34471W        W76482  20.219   5.634  10.602
34472W        W76483  17.169  11.104   4.372
34473W        W76484  11.349   3.374   8.342
34474W        W76485  21.149  17.594   8.432
34475W        W76486   1.179  23.301   3.312
34476W        W76487  17.919  11.394   8.182
34477W        W76488   6.159   1.674   0.518
34478W        W76489   7.999  20.314   0.648
34479W        W76490   8.219   4.554   1.938
34480W        W76491  13.879   4.824  10.692
34481W        W76492   9.949   7.654  15.532
34482W        W76493   4.869   7.664  10.482
34483W        W76494   9.849  25.121   3.272
34484W        W76495  18.249   5.114   0.768
34485W        W76496   1.259  16.744   7.812
34486W        W76497  20.829   5.334   8.372
34487W        W76498  20.389  19.054   9.252
34488W        W76499  19.429  17.424  10.462
34489W        W76500  21.679   2.494   3.142
34490W        W76501  18.479   5.014   3.392
34491W        W76502  19.989   7.014   0.568
34492W        W76503  17.559  23.061   7.852
34493W        W76504   2.859  18.794   1.138
34494W        W76505   9.769  22.611   0.098
34495W        W76506  20.019  22.761   2.652
34496W        W76507  15.029   2.614  15.712
34497W        W76508   4.539   6.634   2.278
34498W        W76509  11.829  22.881   1.818
34499W        W76510  19.889  21.871   9.162
34500W        W76511  11.469   7.884   9.192
34501W        W76512   7.729   7.764   7.472
34502W        W76513   0.539  16.994   7.232
34503W        W76514  17.549   9.914  10.062
34504W        W76515   7.079  20.824  15.282
34505W        W76516  13.449  21.411   4.092
34506W        W76517  24.379  18.344   9.492
34507W        W76518  12.759  18.484   8.412
34508W        W76519   4.549  15.374   8.362
34509W        W76520  24.909  15.364  12.332
34510W        W76521   6.709   8.184   0.988
34511W        W76522  24.759  20.644  11.932
34512W        W76523   7.219  10.184   0.558
34513W        W76524   1.479  24.181   2.388
34514W        W76525  15.569  11.584  10.182
34515W        W76526   3.689  19.554   1.958
34516W        W76527  13.679  17.854  14.672
34517W        W76528   4.009  13.894   3.442
34518W        W76529   8.389  20.084   3.222
34519W        W76530   8.749  20.514   9.922
34520W        W76531   8.119   9.004   2.552
34521W        W76532   7.649  17.214   7.812
34522W        W76533   3.309  14.484   8.532
34523W        W76534   0.839  15.074   1.318
34524W        W76535  25.099  22.391   2.792
34525W        W76536  11.019   9.534   9.972
34526W        W76537  16.169  10.554   8.332
34527W        W76538  12.289  15.704   8.932
34528W        W76539  10.379  15.384   3.972
34529W        W76540  11.059   5.004   0.898
34530W        W76541  18.369   3.874   0.748
34531W        W76542  18.919   9.954  10.522
34532W        W76543   8.069  17.454   0.778
34533W        W76544  16.929  17.624   2.178
34534W        W76545  22.509   6.504   0.068
34535W        W76546  18.069  11.574  10.062
34536W        W76547  13.369  25.381   9.632
34537W        W76548  10.089   7.054   1.278
34538W        W76549  16.879   4.074   2.348
34539W        W76550  17.799   4.584  11.542
34540W        W76551  19.279  24.161   2.752
34541W        W76552  17.419  13.494   2.892
34542W        W76553  15.229  21.551   1.688
34543W        W76554  11.039  13.744  15.022
34544W        W76555   5.429   0.674   0.768
34545W        W76556  17.239  15.654   1.348
34546W        W76557  15.039  18.534   3.822
34547W        W76558  12.499  10.424   3.522
34548W        W76559   3.699   5.834   7.702
34549W        W76560  11.309  15.804  15.832
34550W        W76561   7.959  21.294  11.362
34551W        W76562   1.909  10.594   0.618
34552W        W76563  13.409  23.291  11.422
34553W        W76564  22.799   8.394  10.262
34554W        W76565   1.099   8.024   2.358
34555W        W76566  14.389   0.454   9.572
34556W        W76567  13.359   3.314   9.732
34557W        W76568   1.609  23.271   0.128
34558W        W76569   4.569   1.454  11.612
34559W        W76570  17.619  10.304   9.632
34560W        W76571   7.239   5.944   1.148
34561W        W76572   0.489   6.614   2.238
34562W        W76573  10.959   6.064   8.402
34563W        W76574  18.119   4.594   0.828
34564W        W76575   6.089   8.844   2.458
34565W        W76576   2.849  15.584  10.612
34566W        W76577   0.509  19.794   0.498
34567W        W76578   8.019   1.994   8.712
34568W        W76579   9.599  10.054   8.802
34569W        W76580   7.819   0.404   1.088
34570W        W76581   1.549   5.784  10.162
34571W        W76582   5.859   9.104   3.442
34572W        W76583  24.359  20.594   2.632
34573W        W76584   0.769  22.081   9.502
34574W        W76585  25.099  17.304   9.462
34575W        W76586   7.139  10.674   3.672
34576W        W76587   2.679  17.154  10.332
34577W        W76588  19.899  18.664  11.252
34578W        W76589   6.219  22.781  11.342
34579W        W76590  17.959   9.194   8.792
34580W        W76591   9.619   9.794   3.492
34581W        W76592   7.529   5.934   4.182
34582W        W76593  21.299  12.914   7.482
34583W        W76594   7.739  11.264   2.268
34584W        W76595   8.019   0.724   9.492
34585W        W76596   1.199  21.284   2.622
34586W        W76597   4.419   8.674   2.128
34587W        W76598  11.419  25.281  15.852
34588W        W76599   8.079   3.324  10.352
34589W        W76600  24.259  20.394  10.932
34590W        W76601  14.169   8.404  15.202
34591W        W76602  19.459  10.344  11.632
34592W        W76603  20.839   2.844   1.858
34593W        W76604  18.439  25.501   0.628
34594W        W76605  18.779   9.844   7.872
34595W        W76606  22.989   6.244   7.252
34596W        W76607  20.089  20.444  11.292
34597W        W76608  14.239  20.834   9.442
34598W        W76609  12.329  19.104   9.402
34599W        W76610   7.319  20.824  11.622
34600W        W76611  15.809   2.524  11.682
34601W        W76612  24.729   6.284   2.742
34602W        W76613  18.109  21.721   0.748
34603W        W76614  20.659  19.754   3.232
34604W        W76615  16.959  21.411   1.158
34605W        W76616  21.249   6.344  10.992
34606W        W76617   9.659  19.764  10.272
34607W        W76618   1.239  19.204  10.532
34608W        W76619  23.259   4.104   3.852
34609W        W76620   2.009  13.784  14.792
34610W        W76621   2.589   7.734   0.548
34611W        W76622   3.269  14.604   7.642
34612W        W76623  20.629  10.084  14.952
34613W        W76624   8.199   7.604   2.468
34614W        W76625  11.209  17.854   8.692
34615W        W76626   8.069   7.224   8.412
34616W        W76627  19.759   1.804  10.572
34617W        W76628   6.129   1.894   9.362
34618W        W76629   9.079  21.951   3.302
34619W        W76630  22.229   4.194   8.832
34620W        W76631  14.829  17.894   7.932
34621W        W76632  23.559   2.424   0.468
34622W        W76633  22.909  11.394  10.522
34623W        W76634   3.459   8.014  11.062
34624W        W76635  16.399  15.244   3.382
34625W        W76636  11.809  16.764  14.272
34626W        W76637   3.139   9.754   9.162
34627W        W76638   2.619  16.824   9.962
34628W        W76639  20.739  25.221  10.692
34629W        W76640  10.139  15.124   0.628
34630W        W76641  20.669   1.344   8.262
34631W        W76642   5.629  25.161   1.258
34632W        W76643   7.949   6.274   3.072
34633W        W76644  23.449   5.954  10.042
34634W        W76645   5.909  18.134  15.362
34635W        W76646   1.809   8.744   2.892
34636W        W76647  22.619   4.154   1.368
34637W        W76648  18.099  12.334   1.348
34638W        W76649   5.489  11.054  15.222
34639W        W76650  20.469  19.384  10.432
34640W        W76651   0.219   6.704  10.862
34641W        W76652  24.219  17.574   7.002
34642W        W76653   4.499  12.684  10.612
34643W        W76654  17.719  16.644  15.862
34644W        W76655   3.599  15.134   8.872
34645W        W76656   4.919  16.324   3.952
34646W        W76657   8.329   4.054   2.612
34647W        W76658  16.149   3.434  11.282
34648W        W76659   2.069  13.764  11.742
34649W        W76660  16.879   2.744   1.078
34650W        W76661  21.109  15.844   8.612
34651W        W76662  11.869  18.354   9.392
34652W        W76663  22.749   2.994   8.952
34653W        W76664  24.299  16.194   8.502
34654W        W76665  22.839  13.254   1.658
34655W        W76666   0.021   9.094   0.698
34656W        W76667   5.999  14.794   1.948
34657W        W76668   4.989  16.234   1.698
34658W        W76669  15.609   0.524   3.302
34659W        W76670   4.219   9.574   1.028
34660W        W76671  18.519   5.714   4.142
34661W        W76672  11.579  17.034   0.858
34662W        W76673  16.299   3.894   3.652
34663W        W76674  19.079   4.704   8.112
34664W        W76675  23.799   2.354   1.138
34665W        W76676  20.239   6.784   3.472
34666W        W76677   7.369  19.194   2.632
34667W        W76678  13.409  24.301  15.232
34668W        W76679   7.319   2.034   8.952
34669W        W76680   5.629   8.644  15.782
34670W        W76681  13.229   0.034   1.558
34671W        W76682  24.949   4.394   8.922
34672W        W76683   1.719  17.474   2.502
34673W        W76684   6.509  24.981  10.682
34674W        W76685   8.239  13.564   0.268
34675W        W76686  10.089   8.104   3.972
34676W        W76687   4.089  24.661  14.962
34677W        W76688  13.839   0.274   8.002
34678W        W76689  16.819   2.234   0.968
34679W        W76690  15.129   5.894   4.172
34680W        W76691   2.919  20.074   2.802
34681W        W76692  22.219  20.534   7.752
34682W        W76693   0.829   0.804  10.032
34683W        W76694  12.729  17.054  14.722
34684W        W76695  11.739  16.144   1.468
34685W        W76696   8.819  21.304   4.882
34686W        W76697  13.809   2.264   1.298
34687W        W76698   2.649  22.121   1.838
34688W        W76699  24.839  25.141   2.478
34689W        W76700  10.829   1.014  15.572
34690W        W76701  17.579  11.694   9.802
34691W        W76702   3.769   0.624   0.598
34692W        W76703   9.329   3.454  10.002
34693W        W76704   6.829  16.924   4.072
34694W        W76705  25.569  25.101   9.892
34695W        W76706  24.289  11.384  11.422
34696W        W76707   3.959  20.084   2.872
34697W        W76708  15.229   3.444   2.468
34698W        W76709  14.079   4.804   2.068
34699W        W76710   4.519   3.244   7.932
34700W        W76711   8.829  24.571   2.288
34701W        W76712   4.729   5.674   7.642
34702W        W76713   1.659  17.594   7.632
34703W        W76714  22.689  15.534   8.212
34704W        W76715  18.919   6.054   2.522
34705W        W76716  12.289  24.151   8.882
34706W        W76717  12.569  21.541   3.582
34707W        W76718  13.289   1.534   9.952
34708W        W76719   7.999   7.764   0.458
34709W        W76720   3.659  12.384   8.792
34710W        W76721   3.519   9.434  11.212
34711W        W76722  19.409  22.231   9.642
34712W        W76723   9.929   4.244   1.198
34713W        W76724   9.139  19.594  10.002
34714W        W76725  15.689  14.114   3.022
34715W        W76726  17.549  13.824   9.082
34716W        W76727   2.449  12.044   2.592
34717W        W76728  17.669  18.724   0.988
34718W        W76729   7.019  19.014   9.392
34719W        W76730  21.819  12.614   9.522
34720W        W76731  11.949  21.014  11.152
34721W        W76732  17.839   2.614   2.208
34722W        W76733  19.569   9.564   3.662
34723W        W76734  20.009  10.764   1.238
34724W        W76735  13.099  11.854   0.218
34725W        W76736   5.309  23.311   1.748
34726W        W76737  10.139  20.024   1.068
34727W        W76738  13.979  15.994   2.058
34728W        W76739  17.009  13.444   4.782
34729W        W76740  25.049   7.934   1.628
34730W        W76741  15.849   1.224   0.318
34731W        W76742   0.079   9.424   1.608
34732W        W76743  17.529  14.154  15.422
34733W        W76744  20.519   8.334   1.618
34734W        W76745  19.479  14.944   8.482
34735W        W76746  24.489   5.094   0.948
34736W        W76747  12.329  16.704   3.282
34737W        W76748  14.099  13.764  15.322
34738W        W76749   9.629  11.444   3.502
34739W        W76750   9.259  24.201   1.028
34740W        W76751   2.589   6.384  10.182
34741W        W76752   0.739   5.154   0.518
34742W        W76753  17.109  25.351   2.138
34743W        W76754   4.089   4.334   3.682
34744W        W76755   8.849  11.844   2.308
34745W        W76756   8.819   7.734  10.612
34746W        W76757  25.169   6.814   6.312
34747W        W76758  18.119  24.921  11.072
34748W        W76759  15.139   1.844   2.028
34749W        W76760  24.269  23.401  12.352
34750W        W76761   7.849  24.671   9.022
34751W        W76762   0.839  22.051   1.288
34752W        W76763  19.579  18.054   2.318
34753W        W76764  15.289   6.814   2.832
34754W        W76765   3.379   0.764   0.978
34755W        W76766   3.239  21.014   2.672
34756W        W76767  19.679   7.754  10.622
34757W        W76768   3.909  23.451   4.062
34758W        W76769  21.269   4.574   1.458
34759W        W76770  20.519  19.184   3.172
34760W        W76771   3.079  14.414  15.522
34761W        W76772  16.139   7.274   3.232
34762W        W76773   6.659   6.274   8.062
34763W        W76774  16.369   5.834   9.442
34764W        W76775  23.919   4.134   9.092
34765W        W76776  23.319  22.211  11.712
34766W        W76777  25.359   8.054   2.428
34767W        W76778  21.259  12.774   0.788
34768W        W76779   7.619  25.561  10.562
34769W        W76780  10.279  17.394   8.392
34770W        W76781  19.209  20.824   9.772
34771W        W76782   1.389   7.884   9.352
34772W        W76783   0.629  13.884   3.582
34773W        W76784   4.239  14.524   8.732
34774W        W76785  21.349  25.101   1.878
34775W        W76786  17.569   5.564   3.642
34776W        W76787  18.939  14.234   4.332
34777W        W76788  22.779  19.564   2.058
34778W        W76789   3.269  16.764   1.528
34779W        W76790  21.499   3.714  15.292
34780W        W76791  14.329  15.134   9.972
34781W        W76792  24.779  18.394   7.262
34782W        W76793  24.199   4.684   1.788
34783W        W76794   9.729   6.214   0.888
34784W        W76795   5.619  24.961   3.822
34785W        W76796  17.259   7.994  11.422
34786W        W76797   3.299   4.684   9.412
34787W        W76798  20.449  24.131  10.132
34788W        W76799  19.949  17.634   2.488
34789W        W76800   1.559   9.294   0.518
34790W        W76801  24.219  16.504   9.252
34791W        W76802   8.239   8.754   1.768
34792W        W76803  25.589   8.094  15.802
34793W        W76804   1.309   7.864  11.602
34794W        W76805   5.709   9.434   8.412
34795W        W76806   0.059   2.614   1.378
34796W        W76807  22.199   2.654  10.202
34797W        W76808   8.339   5.944  10.172
34798W        W76809  16.739  21.981   2.288
34799W        W76810  11.269   2.004   3.592
34800W        W76811  17.629  22.121   0.098
34801W        W76812  16.529   7.844   3.702
34802W        W76813  22.289  15.114  11.942
34803W        W76814  12.549   5.064   3.512
34804W        W76815  19.529   6.084   9.872
34805W        W76816  20.979   3.464   9.112
34806W        W76817  18.069  10.614   4.092
34807W        W76818  15.549   9.294  14.672
34808W        W76819  23.009  23.171  12.262
34809W        W76820   7.429  18.774   4.802
34810W        W76821   3.109  14.754   9.322
34811W        W76822  13.079   3.914   3.832
34812W        W76823   9.929  12.954   2.408
34813W        W76824  23.489  24.091   7.522
34814W        W76825   4.879  14.454   2.652
34815W        W76826   5.889  16.804   3.832
34816W        W76827  23.059   9.694   1.378
34817W        W76828   8.129   3.144  10.902
34818W        W76829   5.569  24.871   2.328
34819W        W76830  21.939  21.751  10.462
34820W        W76831   7.429  15.684   9.532
34821W        W76832  23.709   9.284  15.432
34822W        W76833   4.119  12.484   8.692
34823W        W76834  19.869   0.814   8.102
34824W        W76835  18.559  19.404   8.722
34825W        W76836  19.569  19.874   7.672
34826W        W76837   9.699  23.461   3.612
34827W        W76838  23.719  18.354   8.192
34828W        W76839  17.839   0.064   1.308
34829W        W76840  23.849   8.584   8.672
34830W        W76841  14.689  19.184  15.522
34831W        W76842  14.009   0.584  15.492
34832W        W76843  25.509  14.964   3.122
34833W        W76844   4.519  12.984   0.248
34834W        W76845  12.659   3.004   0.958
34835W        W76846  20.359   2.254   2.448
34836W        W76847  17.069   2.924   1.638
34837W        W76848  16.739  13.304  10.532
34838W        W76849   7.629  25.571  10.022
34839W        W76850  10.569  15.184   3.042
34840W        W76851   3.399   3.264   8.302
34841W        W76852   0.609  20.714   9.732
34842W        W76853  19.739   7.034   2.702
34843W        W76854  22.029  11.384   7.822
34844W        W76855  17.959  23.361   1.548
34845W        W76856   6.529  21.961  11.062
34846W        W76857  20.129   0.084   2.782
34847W        W76858  20.499  21.821  11.422
34848W        W76859   9.769  11.144   3.032
34849W        W76860  10.539  22.401   9.142
34850W        W76861   5.349  21.571  10.562
34851W        W76862   1.429   8.294   1.608
34852W        W76863  24.629   5.704   1.678
34853W        W76864  25.429  18.914  10.382
34854W        W76865  22.919  15.074   4.102
34855W        W76866   9.719  22.211  10.142
34856W        W76867  14.689  15.604   0.438
34857W        W76868   2.099  20.554   9.062
34858W        W76869  17.759  22.641  12.312
34859W        W76870  21.109  20.814   0.418
34860W        W76871   2.179  13.554  10.922
34861W        W76872  19.189  20.754   1.468
34862W        W76873  25.429  16.824   8.372
34863W        W76874  17.659  14.344   9.082
34864W        W76875   9.159  15.704   8.852
34865W        W76876   0.129  13.204   2.428
34866W        W76877   4.909   9.224  11.012
34867W        W76878  19.379   9.294   8.542
34868W        W76879   0.001  25.211   8.372
34869W        W76880  17.359  22.811  10.692
34870W        W76881   8.169  20.934   1.948
34871W        W76882  18.749  17.724   7.232
34872W        W76883   1.729   7.724   7.062
34873W        W76884  14.139  17.864   9.912
34874W        W76885   4.159  17.304  10.342
34875W        W76886  12.199   0.424   0.758
34876W        W76887   1.419  10.714   0.478
34877W        W76888  21.049  13.124  11.392
34878W        W76889   1.609   3.284   2.088
34879W        W76890  10.139   9.974  15.122
34880W        W76891  24.349  20.044   7.242
34881W        W76892  15.059  11.634   5.302
34882W        W76893  14.129   1.794   3.072
34883W        W76894   7.189  15.474   1.258
34884W        W76895   4.549   1.234   1.688
34885W        W76896  15.769   2.194   0.098
34886W        W76897   3.489  20.394   1.538
34887W        W76898   6.119  19.344   1.068
34888W        W76899  10.139  17.634  10.692
34889W        W76900  25.099  13.314   2.782
34890W        W76901  20.719   4.344   0.208
34891W        W76902   6.869   0.124   9.052
34892W        W76903   7.969  18.524   0.768
34893W        W76904  10.589  21.074   9.672
34894W        W76905  18.099   0.554   8.832
34895W        W76906  20.759  14.264   2.138
34896W        W76907  14.329   6.604  10.292
34897W        W76908  18.069  17.674   1.228
34898W        W76909  18.559  22.631   8.812
34899W        W76910  11.439  12.434  15.782
34900W        W76911  11.209  11.684  15.292
34901W        W76912   7.879   9.544  15.642
34902W        W76913  18.539   4.824   3.802
34903W        W76914   2.059  22.191   8.022
34904W        W76915   1.929   5.964  11.762
34905W        W76916  21.239   5.524   7.922
34906W        W76917  23.459  10.964   9.022
34907W        W76918   3.579  11.284  11.282
34908W        W76919   1.029   0.044   1.098
34909W        W76920   8.729   0.894   9.282
34910W        W76921   8.139  14.764   0.088
34911W        W76922  10.119  13.414   9.842
34912W        W76923  14.559  15.394   3.122
34913W        W76924  20.949  11.044   0.228
34914W        W76925  19.159  23.931  11.112
34915W        W76926   0.799  11.584   0.468
34916W        W76927   0.209  21.441   9.092
34917W        W76928  24.239  13.974   8.162
34918W        W76929   0.439  23.211   0.718
34919W        W76930  19.699   1.594   0.268
34920W        W76931  21.859  13.814   3.112
34921W        W76932  11.859  20.724   4.122
34922W        W76933  18.049  12.644   8.892
34923W        W76934  23.619  16.134   7.582
34924W        W76935  10.409  25.201   3.462
34925W        W76936  16.939  19.154   2.478
34926W        W76937   5.429   8.184   8.292
34927W        W76938  12.089  21.691   3.782
34928W        W76939   1.459  22.671   2.842
34929W        W76940   0.499   2.484   2.892
34930W        W76941   4.099  24.771   8.462
34931W        W76942  24.529  12.554   2.248
34932W        W76943  24.509   7.564   9.042
34933W        W76944   3.579  11.514   3.842
34934W        W76945   8.149  19.264   9.812
34935W        W76946  19.159  20.564   3.292
34936W        W76947   2.289  22.311  15.862
34937W        W76948   8.629  21.224  15.492
34938W        W76949   6.019  21.381   2.348
34939W        W76950  15.929   8.904   4.262
34940W        W76951  12.859   2.974  14.022
34941W        W76952   0.629   6.214   1.348
34942W        W76953  11.729  13.104   1.838
34943W        W76954   7.809  21.891   9.862
34944W        W76955   1.039  19.854  11.382
34945W        W76956  18.929  14.844  10.752
34946W        W76957   5.879  21.771   9.302
34947W        W76958  17.799  14.814  10.432
34948W        W76959  19.819  19.274  11.562
34949W        W76960   1.759   7.584   2.398
34950W        W76961   1.319   7.794   8.382
34951W        W76962   8.759   7.164   2.148
34952W        W76963   8.709  16.744   0.758
34953W        W76964  21.559  10.104   8.372
34954W        W76965   2.879  21.531   0.168
34955W        W76966  22.199   8.494   2.582
34956W        W76967   3.409   5.584   1.798
34957W        W76968  19.989   6.754   2.128
34958W        W76969   5.289   8.294  11.042
34959W        W76970  20.959  16.904   0.668
34960W        W76971   6.539  18.044   8.222
34961W        W76972   1.879   0.684   2.582
34962W        W76973   4.949   2.064  11.932
34963W        W76974  13.229  22.811   1.578
34964W        W76975  16.519  11.614  13.872
34965W        W76976   9.939   9.504   9.192
34966W        W76977   7.109  10.214   8.662
34967W        W76978  13.219   0.184   2.982
34968W        W76979   1.259  18.544  11.412
34969W        W76980  24.339   6.044   1.868
34970W        W76981   3.679  20.844   2.438
34971W        W76982   9.589   9.034   0.518
34972W        W76983   7.249   6.564   1.848
34973W        W76984  10.589   0.354   1.838
34974W        W76985  14.759   2.384   8.032
34975W        W76986   7.149   3.914  10.982
34976W        W76987  14.189  18.744   1.318
34977W        W76988  10.219  19.434   3.532
34978W        W76989  11.599  10.404   5.162
34979W        W76990  12.539   0.624   2.952
34980W        W76991  16.819  14.504   1.618
34981W        W76992   2.269  10.844  10.082
34982W        W76993  23.189  21.391   1.498
34983W        W76994   3.659  16.144  10.672
34984W        W76995   6.239   2.184   9.792
34985W        W76996   0.439  22.101   0.598
34986W        W76997  17.069  23.451   9.422
34987W        W76998   3.769  19.734  10.682
34988W        W76999   3.129   2.264   0.458
34989W        W77000   3.749  15.124   9.822
34990W        W77001   5.109   5.504  11.112
34991W        W77002  17.859  21.631   3.342
34992W        W77003   4.659   7.594   1.048
34993W        W77004  23.319   7.564   0.458
34994W        W77005  17.209  20.054   9.032
34995W        W77006  19.429   8.874  11.202
34996W        W77007   0.519  15.624   2.942
34997W        W77008   9.759  14.614   1.798
34998W        W77009   9.239  24.901   9.902
34999W        W77010  16.489   1.684   1.508
35000W        W77011  25.219  10.424   1.118
35001W        W77012  23.249   9.014  11.952
35002W        W77013  17.569   1.514   3.112
35003W        W77014   7.549   8.284   0.018
35004W        W77015  17.169  20.224   8.522
35005W        W77016  19.559  22.691   9.812
35006W        W77017  10.779   4.204   0.288
35007W        W77018   0.589   7.554  10.522
35008W        W77019  22.319  23.011   7.782
35009W        W77020  16.399   3.544  10.772
35010W        W77021  17.629   1.254   2.542
35011W        W77022  25.379  18.064  11.492
35012W        W77023  22.899  11.154   2.762
35013W        W77024  20.449   3.754   2.118
35014W        W77025  20.979   7.214   7.762
35015W        W77026  14.679  18.424   9.952
35016W        W77027  19.229   4.354   3.582
35017W        W77028   8.019  23.551  10.342
35018W        W77029   2.119   4.024   9.242
35019W        W77030  15.069  17.044   0.258
35020W        W77031  10.139  24.281   8.902
35021W        W77032   5.419   9.244  11.012
35022W        W77033  13.219  11.384   0.318
35023W        W77034  14.909  20.064  11.772
35024W        W77035   8.019  23.411   8.452
35025W        W77036   0.001  20.384   7.772
35026W        W77037   8.639  14.554   0.028
35027W        W77038   1.669   6.594   8.082
35028W        W77039   6.829   9.334   9.152
35029W        W77040  24.539  18.124   2.862
35030W        W77041   1.289   1.204   9.912
35031W        W77042   8.709  19.344  11.332
35032W        W77043  25.419   6.544   9.462
35033W        W77044  18.299  22.661   9.992
35034W        W77045  11.329  10.004   1.658
35035W        W77046  12.979   4.824   3.112
35036W        W77047  20.969  18.534  11.692
35037W        W77048   7.839  19.324  10.692
35038W        W77049   1.449   0.824  15.692
35039W        W77050  20.749   7.314  11.052
35040W        W77051  24.389  24.441   9.872
35041W        W77052   3.939   7.814   8.602
35042W        W77053  12.509   3.854   4.642
35043W        W77054  16.879  18.854   8.482
35044W        W77055   8.879  16.214   3.222
35045W        W77056   8.679   4.784  14.832
35046W        W77057  14.689   4.804  15.872
35047W        W77058   2.849   7.794  14.672
35048W        W77059  13.349   6.824  15.302
35049W        W77060   9.869  12.794   0.908
35050W        W77061  17.869   1.274   9.612
35051W        W77062   7.989  18.024   2.108
35052W        W77063  23.819  25.191  10.012
35053W        W77064  24.689  23.181   2.632
35054W        W77065  22.009   2.774  11.692
35055W        W77066  16.679   7.444   1.988
35056W        W77067  15.049   5.714   0.848
35057W        W77068   3.059   8.154   8.892
35058W        W77069   9.059   0.344  14.812
35059W        W77070  11.079  21.811   3.542
35060W        W77071   9.379  24.591   0.728
35061W        W77072  12.129  11.274   3.322
35062W        W77073  12.429   9.514   2.288
35063W        W77074  20.469   9.584   9.272
35064W        W77075  22.129   5.434   9.452
35065W        W77076  22.649  10.244   3.242
35066W        W77077  14.519   1.014   2.028
35067W        W77078   8.939  19.494  15.212
35068W        W77079  10.709   4.844  15.612
35069W        W77080  25.119  18.294   9.852
35070W        W77081  14.409  25.071   8.172
35071W        W77082   9.559  11.164  14.712
35072W        W77083  12.409  10.854  15.402
35073W        W77084  23.989  12.694   8.152
35074W        W77085  17.919  12.684  10.782
35075W        W77086  15.749  20.754   1.128
35076W        W77087  19.949  11.214   9.712
35077W        W77088   7.079  18.814  10.582
35078W        W77089   1.399   7.014   8.122
35079W        W77090  14.409  11.704  14.952
35080W        W77091  13.179   1.264   1.648
35081W        W77092  14.329  14.324   3.622
35082W        W77093  10.439  10.414   2.038
35083W        W77094   6.599  23.981  10.902
35084W        W77095   7.879   5.004   8.892
35085W        W77096  15.779  15.324   0.818
35086W        W77097  18.769   1.824   8.542
35087W        W77098  16.839   7.744   9.712
35088W        W77099  15.709  17.474   3.482
35089W        W77100  24.399  10.314   2.268
35090W        W77101   5.989   6.264  11.302
35091W        W77102  20.969  23.001   9.922
35092W        W77103   4.609  21.184   9.312
35093W        W77104  21.999   0.274  10.292
35094W        W77105  14.789   9.324   9.092
35095W        W77106  14.279  11.824   2.038
35096W        W77107   0.869  18.424  15.872
35097W        W77108  21.079  10.754   2.498
35098W        W77109   8.239   7.074   2.178
35099W        W77110  17.459  18.564  10.272
35100W        W77111  22.929   0.004   1.168
35101W        W77112  23.499   2.804   8.652
35102W        W77113   7.349   4.774   3.052
35103W        W77114  24.609   7.444  10.932
35104W        W77115   4.299   7.204   7.792
35105W        W77116   8.309  22.561   4.822
35106W        W77117  16.339  19.424  15.282
35107W        W77118  18.169   7.844   2.582
35108W        W77119   7.699  11.754   2.378
35109W        W77120  21.019  19.464   0.598
35110W        W77121   3.639   3.334   7.862
35111W        W77122   7.279   7.704  10.922
35112W        W77123   3.069  13.824   9.572
35113W        W77124   2.009  14.744   2.572
35114W        W77125  10.349   7.864  15.702
35115W        W77126  23.569  14.304   9.442
35116W        W77127  18.029  23.051  11.442
35117W        W77128   5.589   4.454   9.152
35118W        W77129   0.579  21.174  11.882
35119W        W77130  18.999  23.121  11.642
35120W        W77131   2.159   4.124   7.542
35121W        W77132   7.769   0.524   3.632
35122W        W77133  23.969  21.314  10.732
35123W        W77134   1.109  20.724   2.562
35124W        W77135  18.479  11.814   3.512
35125W        W77136  10.469  23.721  14.922
35126W        W77137  12.079   3.644   3.762
35127W        W77138  13.449   5.704   0.318
35128W        W77139   3.509  19.964   2.742
35129W        W77140  25.309   4.524   0.198
35130W        W77141  14.199  22.131  15.752
35131W        W77142   5.299  23.631   3.612
35132W        W77143  20.349  23.141   0.418
35133W        W77144  24.299  16.784   1.618
35134W        W77145   0.789  17.694  11.222
35135W        W77146  10.779  17.674   2.248
35136W        W77147   1.689  24.251   1.888
35137W        W77148  12.419   6.924   0.838
35138W        W77149   1.479   5.654  15.762
35139W        W77150   1.809  22.671   2.488
35140W        W77151  25.339  15.834  10.042
35141W        W77152  24.589  22.171   7.862
35142W        W77153  18.969   6.354   3.312
35143W        W77154  16.379   6.524   9.462
35144W        W77155  11.909  10.174   2.158
35145W        W77156   0.329   1.904   9.292
35146W        W77157  18.679   9.124  15.322
35147W        W77158   6.249  18.334   2.178
35148W        W77159  24.069   6.264   7.122
35149W        W77160  13.489   0.364   0.308
35150W        W77161   9.549   5.824  15.062
35151W        W77162   1.649  25.421   8.852
35152W        W77163  15.469   6.714   9.722
35153W        W77164   1.229  16.054   3.762
35154W        W77165   4.409   8.534   9.362
35155W        W77166  15.049  19.514   4.132
35156W        W77167  22.549  13.984   8.272
35157W        W77168  11.989  12.144  10.032
35158W        W77169  12.759  16.804   3.562
35159W        W77170   6.649  22.171  10.452
35160W        W77171   9.799  15.094   2.642
35161W        W77172  10.349  21.741  15.672
35162W        W77173   8.439  25.081   9.992
35163W        W77174   9.469  22.131   1.188
35164W        W77175  25.059  14.954   2.532
35165W        W77176  22.919  11.634   1.548
35166W        W77177  12.209  24.851   4.482
35167W        W77178  15.269  15.414  11.202
35168W        W77179  12.489   7.894   0.008
35169W        W77180   8.199  15.434   4.112
35170W        W77181  10.609  19.424  15.352
35171W        W77182  20.599  22.691  11.172
35172W        W77183  17.629  14.864  11.062
35173W        W77184   5.639  17.934  11.962
35174W        W77185   4.169  21.124  10.972
35175W        W77186  16.519  13.344   9.192
35176W        W77187   8.399   3.574   3.492
35177W        W77188  23.939  22.611   0.658
35178W        W77189   8.319  21.761   9.872
35179W        W77190  25.109  23.251   2.962
35180W        W77191  15.859  24.221   1.398
35181W        W77192  22.989   1.714  11.272
35182W        W77193  22.429  12.794  11.142
35183W        W77194  13.809  15.994   9.692
35184W        W77195  19.709   4.384   0.278
35185W        W77196  13.219   0.874   4.472
35186W        W77197   4.399  15.304   2.592
35187W        W77198  22.019  13.734   1.498
35188W        W77199   2.979  16.874   2.408
35189W        W77200   6.879   2.794   9.122
35190W        W77201  15.379  14.524   2.268
35191W        W77202  25.369  13.834   1.618
35192W        W77203   1.129  12.324   3.362
35193W        W77204  23.659   2.094   9.232
35194W        W77205  23.309  17.204  12.262
35195W        W77206   0.129  17.384   7.222
35196W        W77207  15.729   0.164   2.652
35197W        W77208  12.759   8.704   2.872
35198W        W77209  12.739  17.794   3.682
35199W        W77210  25.179  13.994   0.798
35200W        W77211  19.649  16.484   3.072
35201W        W77212  11.199  17.124   9.402
35202W        W77213  19.269  20.924  10.632
35203W        W77214   3.749  22.941   9.782
35204W        W77215  17.359  17.834   2.158
35205W        W77216  14.749  16.004  15.312
35206W        W77217   2.449  24.401   0.168
35207W        W77218  13.299  20.174   0.878
35208W        W77219  23.169   7.144  10.152
35209W        W77220  10.889  22.811   2.058
35210W        W77221   6.099  15.194  10.422
35211W        W77222  25.379   1.824   8.262
35212W        W77223  10.139  15.574  10.702
35213W        W77224   2.979   8.354   7.592
35214W        W77225  14.379  22.701   9.622
35215W        W77226  14.469   2.504   9.742
35216W        W77227  21.209  15.864   8.082
35217W        W77228  17.779  14.304   0.208
35218W        W77229  14.469   0.954   9.272
35219W        W77230  11.909   5.594   1.128
35220W        W77231   0.249  22.621  15.482
35221W        W77232   7.519  15.964   4.112
35222W        W77233  21.639  20.044  10.722
35223W        W77234   0.439   3.514  11.472
35224W        W77235  24.819  10.074  10.612
35225W        W77236  16.649   7.294  14.682
35226W        W77237   8.759   4.224   0.238
35227W        W77238   1.429  16.364   9.012
35228W        W77239  15.319  11.624  14.792
35229W        W77240  12.989   5.174   1.368
35230W        W77241  11.699  21.991  15.592
35231W        W77242  11.019   8.734   9.042
35232W        W77243   7.249  19.184   0.798
35233W        W77244   6.149  10.334   0.348
35234W        W77245  16.829   5.824  10.552
35235W        W77246   0.369  16.174   2.672
35236W        W77247  17.879  12.684   9.332
35237W        W77248  17.339  18.984   0.208
35238W        W77249  25.349  22.441   1.268
35239W        W77250   3.929  17.364   2.682
35240W        W77251  22.699  12.124   9.002
35241W        W77252   3.019  15.904   8.872
35242W        W77253  25.119   9.484   9.872
35243W        W77254   0.189   8.604  11.002
35244W        W77255   6.969   2.714   1.618
35245W        W77256  18.199  24.911   9.622
35246W        W77257  16.049  20.984  11.692
35247W        W77258   0.689   5.444   2.238
35248W        W77259  15.849  21.244  10.692
35249W        W77260   5.909  10.324   1.618
35250W        W77261   2.829   9.604   9.972
35251W        W77262  25.259  15.894   8.152
35252W        W77263  11.129  14.024   3.592
35253W        W77264  22.809   7.254   9.302
35254W        W77265   3.449  16.114   3.022
35255W        W77266   6.349  14.354   1.078
35256W        W77267  18.699   6.994   2.448
35257W        W77268   1.009   1.914   2.068
35258W        W77269   2.259   9.434   0.158
35259W        W77270  15.159  16.684   3.552
35260W        W77271  21.509  14.844   3.062
35261W        W77272  19.449  17.304   9.002
35262W        W77273  17.659  13.134   2.642
35263W        W77274  14.419  13.674   1.168
35264W        W77275   4.139  24.111  10.132
35265W        W77276  10.589   8.364   0.258
35266W        W77277  15.629   8.034   1.468
35267W        W77278  18.499  19.284   2.398
35268W        W77279  10.339  12.694   2.602
35269W        W77280  16.839  17.804  10.062
35270W        W77281   0.449  13.274   2.942
35271W        W77282  22.969  13.964  11.452
35272W        W77283  15.949  19.674   1.558
35273W        W77284   8.459   5.844   2.512
35274W        W77285   0.639  15.354   2.028
35275W        W77286   5.899   3.114  10.792
35276W        W77287  13.819   4.214   0.268
35277W        W77288   3.819  11.674   0.548
35278W        W77289   9.619   1.364  10.312
35279W        W77290  20.759  11.894   2.972
35280W        W77291  12.229  22.511   3.482
35281W        W77292  18.599  15.904  11.812
35282W        W77293  18.699  25.051   9.792
35283W        W77294  17.319  10.844  15.712
35284W        W77295  11.129  11.544   3.872
35285W        W77296  23.349   9.074   3.342
35286W        W77297   1.109  14.494   8.672
35287W        W77298  21.179  21.461   9.782
35288W        W77299  20.609   7.124   7.282
35289W        W77300  25.219   4.564   8.472
35290W        W77301  12.129   2.974   9.342
35291W        W77302  10.499  13.494   3.132
35292W        W77303  12.799   7.154   9.102
35293W        W77304  22.029   4.644   3.142
35294W        W77305  14.859  12.604  13.552
35295W        W77306  14.399  13.854   1.638
35296W        W77307  25.449  10.164   7.902
35297W        W77308  18.239  19.324   0.558
35298W        W77309  18.699   4.314   9.302
35299W        W77310   0.749   3.734   2.532
35300W        W77311   5.019   8.104  10.662
35301W        W77312   4.439  18.804   0.238
35302W        W77313   1.749  20.744   0.408
35303W        W77314  22.559   2.664  11.122
35304W        W77315  12.219  20.934   0.708
35305W        W77316  10.649   5.954   9.872
35306W        W77317  14.829   3.554   2.058
35307W        W77318  23.909   5.784   8.112
35308W        W77319  25.079   5.924   6.412
35309W        W77320  20.289  12.074   1.488
35310W        W77321   4.579   5.324   7.942
35311W        W77322  10.629   3.804   9.922
35312W        W77323  13.449   2.284   3.692
35313W        W77324  20.389  23.911  10.632
35314W        W77325  20.219  22.111   0.358
35315W        W77326   1.789  22.361   2.108
35316W        W77327   4.639   2.334   0.288
35317W        W77328  17.119  11.554  15.112
35318W        W77329   1.159  12.754   8.612
35319W        W77330   0.259   4.104   1.928
35320W        W77331  18.719  18.144   8.702
35321W        W77332  10.599  21.891   1.088
35322W        W77333   4.999  12.354  10.332
35323W        W77334  23.289   5.624   1.018
35324W        W77335   7.899  22.361   3.852
35325W        W77336  17.379   3.814  10.532
35326W        W77337   8.579   1.474   8.562
35327W        W77338  10.769  25.581   3.572
35328W        W77339  25.119  14.464  10.982
35329W        W77340   7.589   5.514   0.498
35330W        W77341   0.149  18.824  11.742
35331W        W77342  15.289  24.951   2.468
35332W        W77343  22.529   4.784  10.782
35333W        W77344   4.649  18.314   8.542
35334W        W77345   3.179  10.284   9.352
35335W        W77346   9.349   0.214   8.732
35336W        W77347  16.119   8.034  15.422
35337W        W77348   1.899   0.664   9.452
35338W        W77349   4.379  17.574  10.892
35339W        W77350  22.409  17.744   9.582
35340W        W77351  23.639  14.514   9.852
35341W        W77352   9.959  13.594   3.572
35342W        W77353   3.329  17.164   8.162
35343W        W77354  22.639  16.114  10.312
35344W        W77355  13.649  24.411   0.348
35345W        W77356  17.489   2.024  10.042
35346W        W77357   7.409  18.054   0.408
35347W        W77358  20.699  11.644  10.332
35348W        W77359  15.239  19.714   7.942
35349W        W77360  14.209   0.534   1.948
35350W        W77361  22.089   9.064  10.132
35351W        W77362  22.459   1.484   8.082
35352W        W77363  15.629  13.554  14.712
35353W        W77364   3.689   0.034   1.908
35354W        W77365  24.769  11.744   1.838
35355W        W77366   4.219  11.074  14.952
35356W        W77367  16.259   3.754   9.802
35357W        W77368  12.909   0.754   8.552
35358W        W77369  16.699   2.624   2.952
35359W        W77370   2.149  16.824   9.892
35360W        W77371   9.109  18.914  15.152
35361W        W77372  15.619   7.144   9.352
35362W        W77373  16.949  14.714  10.382
35363W        W77374   5.939  23.271   0.808
35364W        W77375  16.449  23.431   2.762
35365W        W77376   3.269   1.954   4.162
35366W        W77377  15.569  17.174  10.852
35367W        W77378  11.249  14.624   3.462
35368W        W77379  20.109  14.174   0.028
35369W        W77380  21.429   0.714   8.692
35370W        W77381  10.329  23.041  10.102
35371W        W77382  16.679   9.354   1.398
35372W        W77383  25.279  14.264   1.338
35373W        W77384  15.439  25.041   1.358
35374W        W77385   5.119  25.531   1.968
35375W        W77386   6.109   1.374   8.042
35376W        W77387  24.329  14.564   1.288
35377W        W77388   2.809   2.724  10.422
35378W        W77389  19.269  13.564   7.772
35379W        W77390  25.029   1.294   8.092
35380W        W77391  23.269   1.484   1.218
35381W        W77392   8.719  22.281   3.252
35382W        W77393  17.119  21.411   3.882
35383W        W77394  10.989  12.354   8.692
35384W        W77395  18.389   0.184   2.108
35385W        W77396  10.979  11.454  14.512
35386W        W77397  12.019  15.754   5.332
35387W        W77398  15.679  10.914   9.682
35388W        W77399   8.249   4.464   1.098
35389W        W77400   1.019   9.684   8.002
35390W        W77401  10.639  22.161  10.722
35391W        W77402  24.069  16.854   7.712
35392W        W77403  11.369   6.494   0.958
35393W        W77404  15.239   5.034   3.152
35394W        W77405  15.209  23.721   2.542
35395W        W77406   3.329  23.671   1.898
35396W        W77407  16.819  11.344  10.732
35397W        W77408   4.549   3.784   2.572
35398W        W77409   3.999  17.814  10.632
35399W        W77410  17.939  11.684   4.222
35400W        W77411  10.629  21.411   4.252
35401W        W77412   1.199   1.344   9.192
35402W        W77413   7.429   0.384  15.782
35403W        W77414  12.169   9.954  10.292
35404W        W77415  10.479  11.984   2.028
35405W        W77416   7.629  18.554  10.252
35406W        W77417   1.629   8.284   3.012
35407W        W77418  13.569   1.984   2.952
35408W        W77419   3.699   3.754  15.512
35409W        W77420   7.779  18.754  15.252
35410W        W77421  18.489  13.194   3.102
35411W        W77422  25.549  21.344  10.372
35412W        W77423  22.869  18.994   8.112
35413W        W77424   0.599   6.294  15.752
35414W        W77425   1.139   5.204   2.148
35415W        W77426  16.979   0.134  15.612
35416W        W77427  23.999  20.064   0.358
35417W        W77428  12.329   9.994   4.502
35418W        W77429  20.279  17.354  10.142
35419W        W77430  21.469  24.161   2.278
35420W        W77431  10.349  17.654  11.192
35421W        W77432   5.459  11.604   9.692
35422W        W77433  21.259   6.094   1.758
35423W        W77434   0.689  23.061  11.492
35424W        W77435  15.789   2.354  15.222
35425W        W77436  25.159  14.984  10.832
35426W        W77437   3.989  14.164   9.692
35427W        W77438  20.269   0.324  12.732
35428W        W77439   1.929  22.921   3.752
35429W        W77440  16.949  24.101   8.242
35430W        W77441   5.989  12.294   7.692
35431W        W77442  10.679  24.161  10.652
35432W        W77443  16.909   3.334   9.302
35433W        W77444   5.389   7.844   1.038
35434W        W77445  22.279  16.944   2.952
35435W        W77446  14.649   7.284  10.012
35436W        W77447  15.859   3.134   9.542
35437W        W77448   7.719  10.134   9.912
35438W        W77449  24.089  14.794   4.422
35439W        W77450  13.399   6.914   1.728
35440W        W77451   5.509   9.714   9.552
35441W        W77452  16.159  14.374   2.288
35442W        W77453  17.809   4.164   0.768
35443W        W77454   5.579  22.491  11.402
35444W        W77455  20.009  12.654   1.438
35445W        W77456  24.009  19.114  10.932
35446W        W77457   4.119   4.664   2.228
35447W        W77458   9.879   1.374  15.792
35448W        W77459  23.379  12.784   7.512
35449W        W77460  22.229  13.084  10.372
35450W        W77461   9.809  20.634   9.692
35451W        W77462   5.139  11.814   7.972
35452W        W77463   3.339   9.204   1.318
35453W        W77464  20.079   4.704   8.662
35454W        W77465  20.829  24.191  10.562
35455W        W77466  13.429   7.604  10.462
35456W        W77467   8.249  23.211  15.242
35457W        W77468  17.149  10.204   3.052
35458W        W77469  21.569  21.441   9.522
35459W        W77470  17.959  18.374   9.522
35460W        W77471   5.679  12.004  11.382
35461W        W77472  17.989  23.501  11.662
35462W        W77473  19.309   3.044   0.648
35463W        W77474  17.219   5.334   9.692
35464W        W77475  21.589   1.574   7.942
35465W        W77476   0.001   6.604   7.582
35466W        W77477  20.679   7.054   3.452
35467W        W77478  14.079  21.334   9.492
35468W        W77479  22.349   6.494   9.512
35469W        W77480   9.259   5.184   2.542
35470W        W77481   8.879  10.544  15.642
35471W        W77482  22.789  25.281  10.202
35472W        W77483   6.399   8.284  15.492
35473W        W77484  11.939  14.984   3.322
35474W        W77485  17.919  20.274  10.542
35475W        W77486  14.739  16.364   9.492
35476W        W77487  19.539  12.304   0.078
35477W        W77488   6.909  15.964   8.922
35478W        W77489  25.039  16.514   2.592
35479W        W77490  19.709   7.394   0.438
35480W        W77491  19.069  23.961   0.578
35481W        W77492  24.729   0.434  10.892
35482W        W77493  21.189   5.234   8.792
35483W        W77494  14.219  17.444   4.012
35484W        W77495  22.749  18.184   2.468
35485W        W77496  19.889  17.604   8.892
35486W        W77497  20.969  13.104   8.872
35487W        W77498  20.439  21.064   1.938
35488W        W77499   6.049  23.841   0.698
35489W        W77500   3.799   1.114   6.762
35490W        W77501  23.519  12.704   0.208
35491W        W77502  14.489  19.784   3.992
35492W        W77503  13.589  19.864   3.122
35493W        W77504  15.869  18.484   1.038
35494W        W77505   6.399   1.664   1.428
35495W        W77506  19.849   3.174   2.972
35496W        W77507   0.349   1.494   0.958
35497W        W77508  16.809   6.544   0.928
35498W        W77509  12.049  10.554   4.232
35499W        W77510  10.119   7.224   2.058
35500W        W77511  20.749  24.521   2.732
35501W        W77512  16.779  17.394   2.662
35502W        W77513  18.849   6.204   1.538
35503W        W77514  24.969  16.854   9.202
35504W        W77515   9.949  24.401   0.608
35505W        W77516   4.129  24.711  10.932
35506W        W77517  16.219   1.034   2.952
35507W        W77518   6.579   1.694   7.892
35508W        W77519  10.049   5.134   1.248
35509W        W77520  15.179  21.861   8.522
35510W        W77521  19.669  21.691   1.788
35511W        W77522  20.189  23.791   1.788
35512W        W77523   4.709  18.324   0.398
35513W        W77524  12.239  25.461  15.602
35514W        W77525   4.869  15.984  10.152
35515W        W77526   7.329  21.411  10.472
35516W        W77527  19.289   1.154  12.732
35517W        W77528  21.799   5.814   9.372
35518W        W77529  13.439   9.064   0.808
35519W        W77530  10.649  20.414   0.648
35520W        W77531   6.489  14.814  10.232
35521W        W77532  23.749   4.634   8.292
35522W        W77533  11.819   3.154   3.572
35523W        W77534   5.199  11.144  11.472
35524W        W77535  18.749   9.604   9.242
35525W        W77536  14.209  10.604   3.922
35526W        W77537   9.619  15.114   1.678
35527W        W77538   4.319   4.194   8.742
35528W        W77539  23.229   2.164   9.442
35529W        W77540  21.669  12.044   8.692
35530W        W77541   1.139   6.374  15.772
35531W        W77542   4.199  22.231   8.512
35532W        W77543  20.079   8.454  10.272
35533W        W77544   4.239  22.141   1.768
35534W        W77545   3.239  25.011   9.332
35535W        W77546   9.959   1.354   8.512
35536W        W77547  19.629  20.344   9.832
35537W        W77548  18.469   0.944   8.912
35538W        W77549  24.619  19.284   2.168
35539W        W77550  18.929  10.964  10.392
35540W        W77551   3.379  16.914  10.172
35541W        W77552  10.259   7.464   3.342
35542W        W77553  21.509   3.844  11.312
35543W        W77554   0.259   1.354  10.242
35544W        W77555  21.349   2.074   2.428
35545W        W77556  15.559  21.891  10.862
35546W        W77557   0.089   1.804  15.802
35547W        W77558  19.179  10.024   3.492
35548W        W77559   6.059   6.414  10.142
35549W        W77560  21.439  23.391   1.218
35550W        W77561   3.279  15.544   8.572
35551W        W77562   4.199  22.471   3.942
35552W        W77563  16.679  11.444   0.718
35553W        W77564  23.199   8.284  11.532
35554W        W77565   2.219  17.254  10.152
35555W        W77566   0.649   8.314  11.882
35556W        W77567  13.179  25.121   3.642
35557W        W77568   0.469  23.931  11.592
35558W        W77569  14.849  21.831   0.278
35559W        W77570   9.699  20.724   0.398
35560W        W77571  24.489  13.964  11.202
35561W        W77572  21.679  23.701  11.612
35562W        W77573  12.139  16.914   1.658
35563W        W77574  13.169  22.441   3.452
35564W        W77575  20.529   7.374   7.762
35565W        W77576  10.749  18.364   4.932
35566W        W77577  21.689  10.824   0.588
35567W        W77578  12.319  24.121   1.408
35568W        W77579   5.889   4.114  15.862
35569W        W77580  18.869  23.011   1.558
35570W        W77581   0.789  24.051  11.242
35571W        W77582  12.039  13.564   9.932
35572W        W77583  15.049  22.211   8.842
35573W        W77584   7.789   1.284   7.632
35574W        W77585   9.389  10.394  15.242
35575W        W77586   0.679  20.304  10.752
35576W        W77587   8.859   8.424   4.462
35577W        W77588  18.709  13.004   0.798
35578W        W77589  23.499  11.784   8.422
35579W        W77590   7.139   5.514  15.242
35580W        W77591  19.219  23.231   7.892
35581W        W77592  19.099  17.554  12.502
35582W        W77593   2.439  24.901   9.832
35583W        W77594   4.379  15.714  10.352
35584W        W77595  10.439   7.654  14.112
35585W        W77596  25.349   8.714  10.282
35586W        W77597  12.549   0.254   1.948
35587W        W77598  23.199  23.301   0.888
35588W        W77599  15.269  21.711   3.002
35589W        W77600  19.269   1.904   1.348
35590W        W77601  13.309   0.354   9.812
35591W        W77602  21.449   7.854   7.912
35592W        W77603   8.239   0.284   9.432
35593W        W77604  13.819  13.534   0.558
35594W        W77605   1.479  11.164  11.692
35595W        W77606  23.949  17.474   1.528
35596W        W77607   5.959  10.364  15.342
35597W        W77608  23.479  25.151   2.572
35598W        W77609   8.109   2.974   0.728
35599W        W77610  24.099  23.091   1.918
35600W        W77611   8.419   7.754   0.098
35601W        W77612   2.489   9.714   0.478
35602W        W77613  22.919  22.601   8.042
35603W        W77614  10.049   5.764   8.752
35604W        W77615  10.179   3.294   0.968
35605W        W77616  13.359  22.081   3.212
35606W        W77617  10.319  11.634   9.782
35607W        W77618  17.609   5.384   2.942
35608W        W77619   3.739   7.324  11.632
35609W        W77620   6.479  17.274   9.952
35610W        W77621   6.879  10.384   9.632
35611W        W77622   2.609   3.384  10.492
35612W        W77623  10.319   5.564  15.612
35613W        W77624   6.779   8.304  10.252
35614W        W77625   1.709  17.664   8.172
35615W        W77626   4.709   0.514   1.288
35616W        W77627   4.959   6.914   0.198
35617W        W77628   6.829  12.624  14.922
35618W        W77629  13.259   6.564  14.472
35619W        W77630  20.039  24.161  10.892
35620W        W77631  21.359  15.734   0.678
35621W        W77632  20.619   6.034   0.068
35622W        W77633   9.359   8.694   9.762
35623W        W77634  12.589  23.421   0.508
35624W        W77635  24.869   0.634  10.452
35625W        W77636   7.799  10.834   8.742
35626W        W77637   6.179  10.584   3.542
35627W        W77638  16.849  10.974   1.288
35628W        W77639  23.739   6.894   9.432
35629W        W77640  11.789   7.444   9.352
35630W        W77641   5.329   7.704   8.352
35631W        W77642  15.859  14.674   5.142
35632W        W77643  24.009  22.121   3.362
35633W        W77644  15.209  16.334  11.282
35634W        W77645  24.809  17.014  11.282
35635W        W77646  23.569   7.624   7.562
35636W        W77647  22.039  17.534   8.222
35637W        W77648  18.619  22.481   0.398
35638W        W77649  21.309  12.304   9.082
35639W        W77650  14.219  15.374   0.368
35640W        W77651   8.549  11.434   9.442
35641W        W77652  17.189  25.001  11.382
35642W        W77653  13.889  14.014   0.428
35643W        W77654  11.679  14.084   1.118
35644W        W77655  13.359  21.701   0.428
35645W        W77656   9.969   6.224  15.222
35646W        W77657   9.449   4.784   2.288
35647W        W77658  16.029  20.544   2.408
35648W        W77659  10.059  14.424   1.178
35649W        W77660   1.399   4.784   3.602
35650W        W77661  13.639   7.264  14.522
35651W        W77662  10.789   8.004   2.028
35652W        W77663   7.519   5.684  10.012
35653W        W77664  14.829  16.414   2.542
35654W        W77665  17.719  18.674  11.122
35655W        W77666   7.889  23.201   0.638
35656W        W77667  17.419   1.214  11.372
35657W        W77668  23.689  24.751   2.268
35658W        W77669  12.699  10.174  14.722
35659W        W77670   1.759   8.804  15.282
35660W        W77671  16.659  12.664   9.272
35661W        W77672   2.749   5.554   1.508
35662W        W77673  13.879  13.504   1.398
35663W        W77674  20.809  17.834   8.782
35664W        W77675  23.809   6.694   8.222
35665W        W77676   2.639  15.764   9.252
35666W        W77677   7.799  24.281   0.888
35667W        W77678  25.099   7.884   0.618
35668W        W77679  22.459  25.001   9.302
35669W        W77680  14.499   2.734   1.908
35670W        W77681  18.699  18.624   8.962
35671W        W77682  11.649  15.444   3.422
35672W        W77683  17.909  15.074   2.682
35673W        W77684   5.219  24.161  15.612
35674W        W77685  15.699   2.914   9.962
35675W        W77686  12.169   4.664   2.228
35676W        W77687   6.699   3.664   2.478
35677W        W77688  21.909  20.674   8.542
35678W        W77689   5.099   2.354   9.742
35679W        W77690   5.259  14.494   7.222
35680W        W77691   3.759   9.194   8.362
35681W        W77692  11.789   1.814  10.762
35682W        W77693   4.579   7.414   8.212
35683W        W77694   5.779   8.834  15.322
35684W        W77695  14.899   9.594   1.988
35685W        W77696   4.709   2.094   9.532
35686W        W77697  15.639  23.151  10.662
35687W        W77698   3.429  20.854   8.142
35688W        W77699   6.869   4.834  10.852
35689W        W77700  10.789  22.561   1.598
35690W        W77701   5.529  15.634  15.792
35691W        W77702   6.729   2.174   9.902
35692W        W77703   6.969   1.684  15.662
35693W        W77704   8.139  18.054  15.682
35694W        W77705   9.599   4.764  14.312
35695W        W77706  18.999  17.274   9.672
35696W        W77707  19.299  13.134   9.512
35697W        W77708  15.999  13.534   4.322
35698W        W77709  11.199   1.884   2.458
35699W        W77710   1.559  24.261  10.822
35700W        W77711   1.129   4.564   9.292
35701W        W77712   8.489  22.991   9.152
35702W        W77713   8.149  22.051   8.572
35703W        W77714  12.069  14.104   3.042
35704W        W77715   4.159  18.064   3.292
35705W        W77716  16.619   7.074   2.468
35706W        W77717   3.209   0.074  12.332
35707W        W77718  10.799  13.274   4.092
35708W        W77719   7.409  24.111  15.412
35709W        W77720  14.329  22.191   9.582
35710W        W77721  20.179  13.024   9.362
35711W        W77722   5.799  20.724   9.962
35712W        W77723  12.809  23.311   3.672
35713W        W77724   7.509   5.094   8.492
35714W        W77725  15.369   8.524   1.638
35715W        W77726  18.049  14.684   8.012
35716W        W77727   8.699  13.764   1.998
35717W        W77728   4.919  12.004   8.472
35718W        W77729  10.709  17.474  15.382
35719W        W77730   0.899  12.264  10.812
35720W        W77731  23.289  20.924  10.202
35721W        W77732   6.629  12.144   8.162
35722W        W77733  15.649   6.124   1.478
35723W        W77734  15.409  16.004   3.012
35724W        W77735   8.539  11.944   1.138
35725W        W77736  12.009  17.424   0.028
35726W        W77737  25.389  15.364  11.572
35727W        W77738   6.919   1.904   8.212
35728W        W77739  10.009   3.564  15.202
35729W        W77740  21.089  17.734   3.992
35730W        W77741  21.659  17.664   1.478
35731W        W77742   1.469  18.874   0.608
35732W        W77743  17.659  19.254   9.282
35733W        W77744  24.389  12.924  11.402
35734W        W77745  22.789  14.894  10.722
35735W        W77746   1.789   4.184   8.402
35736W        W77747   0.109  14.384   2.298
35737W        W77748  11.369   7.584  10.352
35738W        W77749  14.699  13.914   9.042
35739W        W77750  18.829  22.521  11.392
35740W        W77751   6.379  12.694   8.992
35741W        W77752  21.849   4.104   1.018
35742W        W77753  16.129  13.964  10.472
35743W        W77754  21.219   6.004   8.072
35744W        W77755   0.839  16.514   1.848
35745W        W77756   0.929   5.814   1.398
35746W        W77757  20.719  11.084   8.252
35747W        W77758  14.579  14.894   4.752
35748W        W77759  10.439  14.344   0.118
35749W        W77760   2.479  22.081   3.542
35750W        W77761   7.429  24.581   4.472
35751W        W77762  22.299   5.064   0.658
35752W        W77763   0.199  11.964  15.642
35753W        W77764  14.469   3.264   9.172
35754W        W77765  25.279  24.001   2.398
35755W        W77766   4.789  20.314   1.728
35756W        W77767   2.339   9.714  10.032
35757W        W77768   9.469   1.934   0.548
35758W        W77769   1.069  18.874   9.342
35759W        W77770  18.159   7.464   3.432
35760W        W77771  22.439  23.681  10.212
35761W        W77772   0.619   3.774   7.792
35762W        W77773  16.709  14.234   8.522
35763W        W77774   1.509   8.284   0.208
35764W        W77775  11.049  22.461  12.012
35765W        W77776   1.439   2.024   6.732
35766W        W77777  11.709   0.524   8.222
35767W        W77778   9.329   2.134  15.482
35768W        W77779  13.649   3.334  10.642
35769W        W77780  17.949   3.834  12.062
35770W        W77781  19.029  13.414   0.848
35771W        W77782   8.309  13.294   1.348
35772W        W77783   7.579   8.884  14.932
35773W        W77784  12.459  24.301  15.682
35774W        W77785   1.429   7.044   1.558
35775W        W77786   2.679  18.004  10.732
35776W        W77787   9.429  18.134   3.692
35777W        W77788  20.229   2.404   9.082
35778W        W77789   1.149  19.524   1.068
35779W        W77790  10.039  13.424  10.332
35780W        W77791  16.539  23.011   3.002
35781W        W77792   0.969  10.734   1.788
35782W        W77793  12.659  12.684   4.852
35783W        W77794   7.409  11.264   8.432
35784W        W77795   4.139   9.514   6.832
35785W        W77796  19.679   6.584  10.432
35786W        W77797  22.309   3.774  11.072
35787W        W77798  13.929   0.834   8.662
35788W        W77799  22.749   0.414  11.432
35789W        W77800   1.389  15.744   7.812
35790W        W77801   0.599   5.554   9.782
35791W        W77802   9.449  22.831  10.392
35792W        W77803  19.099   5.794   8.982
35793W        W77804   4.249  16.614   8.432
35794W        W77805  13.939  23.441   2.782
35795W        W77806  10.499  15.424   0.508
35796W        W77807   5.219   8.224  10.192
35797W        W77808   3.069   1.594   0.478
35798W        W77809   4.269  19.934   4.702
35799W        W77810   4.019  13.794   7.422
35800W        W77811  24.489  24.801   2.348
35801W        W77812  17.069  12.554  10.022
35802W        W77813  20.719  18.894   1.998
35803W        W77814   6.049  12.894   3.222
35804W        W77815   2.509   9.174   7.922
35805W        W77816   1.219  23.871   3.032
35806W        W77817  24.659  21.761   9.412
35807W        W77818  24.739  22.511  11.352
35808W        W77819   2.019  12.264  15.532
35809W        W77820  18.889  18.364   9.372
35810W        W77821  16.629  17.604   7.472
35811W        W77822  15.349  14.684   1.648
35812W        W77823  15.819   1.124   8.832
35813W        W77824  24.849   5.094  10.292
35814W        W77825   9.759  16.304  11.192
35815W        W77826  16.149  10.514   4.682
35816W        W77827   0.529  16.224   8.802
35817W        W77828  16.799   3.124   0.138
35818W        W77829  23.399   0.344   9.332
35819W        W77830   7.669  17.934   4.182
35820W        W77831  10.259   5.074   2.228
35821W        W77832   4.559   1.844   0.488
35822W        W77833   2.979   5.974  11.062
35823W        W77834  16.239  16.614   3.202
35824W        W77835   2.109   0.454   8.632
35825W        W77836  20.629   9.484   9.872
35826W        W77837   7.799  10.754  11.102
35827W        W77838   6.069  12.724   0.248
35828W        W77839  19.219   1.654   1.788
35829W        W77840   7.679   6.394   2.652
35830W        W77841  17.439  19.804  10.882
35831W        W77842  23.679  11.804  10.752
35832W        W77843  15.259  17.404   2.188
35833W        W77844  18.649   5.294   2.532
35834W        W77845   7.069  21.771   8.732
35835W        W77846  24.259   2.434   2.298
35836W        W77847   3.209  13.234   1.368
35837W        W77848  13.259  24.851   4.102
35838W        W77849  14.759  11.004   8.242
35839W        W77850  21.569  10.584   2.428
35840W        W77851  20.939  24.551   8.112
35841W        W77852  22.009  23.311   8.922
35842W        W77853   6.659   2.234   7.972
35843W        W77854   2.579   5.434   0.128
35844W        W77855  14.069  20.494   0.938
35845W        W77856   9.069   6.654   9.642
35846W        W77857  16.429   0.414  10.122
35847W        W77858  16.399   8.224   0.778
35848W        W77859  12.579   1.784   0.978
35849W        W77860   4.669  22.851   8.212
35850W        W77861  10.869  15.954  15.632
35851W        W77862   3.039   8.624   8.992
35852W        W77863  23.199  18.484   7.732
35853W        W77864   0.579  13.284  11.322
35854W        W77865  10.729  21.074   1.608
35855W        W77866  14.709   6.264   4.662
35856W        W77867  11.099  18.054   0.408
35857W        W77868  24.129  18.954   7.932
35858W        W77869  21.889  13.434  10.462
35859W        W77870   9.399   0.764   0.928
35860W        W77871  15.769  12.184   4.822
35861W        W77872   0.699  14.084  15.832
35862W        W77873   7.759   4.504   8.622
35863W        W77874  20.879  15.284   0.058
35864W        W77875   7.589  18.904  10.612
35865W        W77876   3.119  24.201   3.302
35866W        W77877   7.269   7.104  15.852
35867W        W77878  18.019  16.934   9.222
35868W        W77879  15.879   8.324   8.472
35869W        W77880  19.179  12.544  11.162
35870W        W77881  14.709   5.754  14.962
35871W        W77882  16.139   9.164   3.132
35872W        W77883   1.979   8.714  11.802
35873W        W77884  10.879   8.054   0.558
35874W        W77885  18.479  17.614   9.892
35875W        W77886   3.879  19.134   8.932
35876W        W77887   3.009   8.874   2.428
35877W        W77888  15.839  13.844   3.982
35878W        W77889  25.179  18.594  11.032
35879W        W77890  14.479   3.504   3.872
35880W        W77891  19.999   2.004   0.628
35881W        W77892  19.829  18.594   2.612
35882W        W77893   2.289  22.231   8.472
35883W        W77894   8.199   1.344   3.122
35884W        W77895  12.589  24.791  15.792
35885W        W77896   0.199   9.134   0.248
35886W        W77897   4.479  18.954   2.228
35887W        W77898   2.079  16.764   0.678
35888W        W77899  11.219   5.244   7.922
35889W        W77900  17.909  15.094   3.292
35890W        W77901   6.069  17.484   3.702
35891W        W77902   1.789  19.444  15.562
35892W        W77903   2.479  13.194   1.778
35893W        W77904  21.409   5.324   3.102
35894W        W77905  13.649  10.664   1.678
35895W        W77906  14.309  11.214  14.872
35896W        W77907   0.489  16.594   2.258
35897W        W77908   9.599   5.154  14.702
35898W        W77909  23.319  18.624   8.212
35899W        W77910   6.199  23.621  15.782
35900W        W77911   7.009   9.344  10.052
35901W        W77912   8.469   5.174  15.052
35902W        W77913  18.749  13.624  10.322
35903W        W77914  18.329  25.461   3.252
35904W        W77915  25.159  17.884   9.182
35905W        W77916  19.239  16.824  10.432
35906W        W77917  19.429   2.184   0.938
35907W        W77918  16.909  20.424   3.822
35908W        W77919   7.989  18.434   3.892
35909W        W77920  10.409   1.894   0.788
35910W        W77921  18.999  15.084   8.002
35911W        W77922  15.529   0.524   1.478
35912W        W77923   0.159  24.471   0.598
35913W        W77924  19.469   5.744   3.742
35914W        W77925  25.049  22.171   9.522
35915W        W77926   5.509   1.014  11.972
35916W        W77927   2.849   4.944  10.792
35917W        W77928   2.099  21.274   9.522
35918W        W77929   3.789  14.854   1.898
35919W        W77930   7.729   4.604   2.038
35920W        W77931   9.239  16.974   0.068
35921W        W77932   9.329  22.771   9.552
35922W        W77933  18.479  15.784   8.982
35923W        W77934  18.249   6.244   3.822
35924W        W77935   5.839   9.554   1.838
35925W        W77936  14.809  13.224   3.782
35926W        W77937   5.239  19.944   9.282
35927W        W77938  13.059  13.484   4.472
35928W        W77939  19.339  20.304   1.308
35929W        W77940  14.719   6.034   8.932
35930W        W77941  12.519  17.284  15.192
35931W        W77942  12.819  11.024   4.552
35932W        W77943   2.769   4.614   9.502
35933W        W77944   4.379   7.784   7.922
35934W        W77945   3.919   7.204   8.602
35935W        W77946  13.309  19.944  10.082
35936W        W77947   1.759   7.604  10.602
35937W        W77948  22.119  20.534   9.622
35938W        W77949   2.919  12.834  15.392
35939W        W77950  24.549  22.851  10.082
35940W        W77951  22.609   3.784   7.452
35941W        W77952  12.189  17.684  15.512
35942W        W77953   0.779   4.954   1.838
35943W        W77954  25.089   4.474  11.142
35944W        W77955  22.969   1.884   2.448
35945W        W77956  16.909   3.464   2.972
35946W        W77957  24.089  23.031   9.852
35947W        W77958   4.919  24.991  15.452
35948W        W77959  16.899  11.164   3.462
35949W        W77960  14.909  21.314   8.802
35950W        W77961  25.379  10.434  11.092
35951W        W77962   3.969  19.404   9.402
35952W        W77963  22.519   8.224   2.902
35953W        W77964  11.399   0.304   3.062
35954W        W77965  10.899   9.164  13.992
35955W        W77966   9.469   8.824   2.478
35956W        W77967  16.139   5.964   3.032
35957W        W77968  14.619  15.824   1.358
35958W        W77969  12.789  18.044   3.062
35959W        W77970   7.119  11.204   9.462
35960W        W77971   9.329  13.984  10.782
35961W        W77972  20.069  25.421   9.512
35962W        W77973   7.389   6.624  15.192
35963W        W77974  11.029  10.144  14.972
35964W        W77975  13.569   2.624  11.292
35965W        W77976  24.049  13.984  10.832
35966W        W77977   8.399  13.664  15.682
35967W        W77978  25.089   8.744   1.878
35968W        W77979   7.899  11.694   1.918
35969W        W77980  10.309  14.814   3.932
35970W        W77981  10.749  20.134   8.412
35971W        W77982  21.799   3.164   3.772
35972W        W77983  22.599   0.004   2.298
35973W        W77984  11.049  11.974  14.942
35974W        W77985   8.739   1.264   3.902
35975W        W77986  24.209   8.984   0.598
35976W        W77987  22.379  23.281  13.022
35977W        W77988  15.249   4.474   3.062
35978W        W77989   4.219  13.044  15.332
35979W        W77990   2.109  17.334   3.052
35980W        W77991   7.079  12.354   1.158
35981W        W77992   5.069  25.231   8.572
35982W        W77993   7.379  14.984  11.172
35983W        W77994   1.759   9.824  11.482
35984W        W77995  21.889  10.744   1.538
35985W        W77996  25.109  10.234   9.722
35986W        W77997  17.899  22.831   0.718
35987W        W77998  24.739  17.724   3.092
35988W        W77999  12.339  10.424   3.052
35989W        W78000   3.559  18.174   1.898
35990W        W78001  12.039  25.061   1.098
35991W        W78002  20.449  25.221   8.362
35992W        W78003   3.949   1.874   0.558
35993W        W78004  23.049  12.464   0.378
35994W        W78005   9.099   7.984   8.532
35995W        W78006   1.689   0.924   3.362
35996W        W78007  18.249  18.314  10.522
35997W        W78008  19.739   1.104   9.252
35998W        W78009  10.979  14.174   0.198
35999W        W78010  20.729   0.324   0.928
36000W        W78011   4.329  21.721  10.132
36001W        W78012  11.459  20.384  15.602
36002W        W78013  24.789  18.384   2.408
36003W        W78014   6.509   1.674  11.162
36004W        W78015   9.569  22.141   8.902
36005W        W78016   5.679   9.494   1.278
36006W        W78017  15.219   4.604  15.662
36007W        W78018   6.359   5.784  14.862
36008W        W78019  23.919  25.391  12.212
36009W        W78020  23.369  19.344  10.352
36010W        W78021   7.719   5.254   1.248
36011W        W78022  19.019   5.824   9.452
36012W        W78023   5.029  15.204   1.008
36013W        W78024  21.579  21.421   3.722
36014W        W78025  12.869  19.074  15.382
36015W        W78026  23.649  18.064  15.872
36016W        W78027   6.589  19.264   1.018
36017W        W78028   5.989  18.314   9.502
36018W        W78029  14.929   6.714   4.652
36019W        W78030   6.739   1.774   2.258
36020W        W78031  25.249   8.424   2.862
36021W        W78032   5.159  25.461   0.338
36022W        W78033  18.169  15.504   1.688
36023W        W78034  16.999  24.571   0.788
36024W        W78035  16.599  17.144   3.042
36025W        W78036  10.989  13.354   2.872
36026W        W78037  12.939  22.991   8.672
36027W        W78038  20.239  14.714   0.438
36028W        W78039  20.839   0.044  11.102
36029W        W78040  20.029   1.754   7.882
36030W        W78041   1.089   7.204   1.958
36031W        W78042  11.159  24.661   8.182
36032W        W78043   1.859   2.074   8.252
36033W        W78044  16.959  25.571   9.032
36034W        W78045  25.509   0.944   3.172
36035W        W78046  16.269  12.464   9.052
36036W        W78047   6.369   1.794   3.132
36037W        W78048  12.049  11.134   0.458
36038W        W78049  17.909  21.651   1.238
36039W        W78050  23.099   6.804   9.212
36040W        W78051  19.429   8.444   2.428
36041W        W78052  21.069  22.491   0.658
36042W        W78053  23.599  17.984   2.532
36043W        W78054  22.449   4.354   2.168
36044W        W78055   9.799   4.184   3.142
36045W        W78056   6.819   4.914   1.738
36046W        W78057  12.689  14.634  15.302
36047W        W78058   9.539  20.404   1.948
36048W        W78059  20.399  19.504   2.792
36049W        W78060   1.949   5.694   3.772
36050W        W78061   5.279   9.164   8.332
36051W        W78062   7.059  21.821   3.542
36052W        W78063  15.849   1.884  14.992
36053W        W78064  11.989   5.394   3.602
36054W        W78065  13.949  15.714   3.902
36055W        W78066   7.079   9.624   0.218
36056W        W78067   1.779  19.224   7.912
36057W        W78068   7.029   1.964   0.818
36058W        W78069  12.759  14.354   4.252
36059W        W78070   1.209  15.834   1.498
36060W        W78071   7.249  23.981  10.042
36061W        W78072   3.809  23.831   8.852
36062W        W78073  24.109  13.784   8.782
36063W        W78074  20.529  14.684   1.788
36064W        W78075  22.719  21.314   9.352
36065W        W78076  10.729   1.244   4.222
36066W        W78077  18.979  13.294  10.802
36067W        W78078  12.599   6.204  15.012
36068W        W78079   0.319   8.354   0.758
36069W        W78080   8.449   4.274   7.832
36070W        W78081  16.139   9.314  14.022
36071W        W78082  19.959   3.664   1.948
36072W        W78083   3.969   1.664  10.562
36073W        W78084   2.309  25.211   2.058
36074W        W78085  16.479  17.754   2.488
36075W        W78086  11.469  16.974   1.878
36076W        W78087  21.819   9.204   0.368
36077W        W78088  24.619   1.554   7.852
36078W        W78089  22.239  24.621   9.612
36079W        W78090  12.019  12.654   3.412
36080W        W78091  17.519  13.994   8.572
36081W        W78092  15.679  14.084  10.222
36082W        W78093   1.799   5.734   2.882
36083W        W78094  16.399  21.591  10.352
36084W        W78095  15.949  24.211   2.912
36085W        W78096  10.879  23.941   9.432
36086W        W78097  13.209   7.484   1.038
36087W        W78098  10.929  21.821   4.412
36088W        W78099  23.889   2.044   9.752
36089W        W78100  13.339  24.131  15.682
36090W        W78101  23.839   7.954  11.062
36091W        W78102   8.029  18.824   1.288
36092W        W78103  22.829  14.294   8.642
36093W        W78104   5.279   1.154  11.152
36094W        W78105   7.959  19.274   2.602
36095W        W78106   4.879   8.454   7.612
36096W        W78107  15.489   7.414   2.488
36097W        W78108  16.109  23.361  10.582
36098W        W78109   2.759  19.604   3.512
36099W        W78110  12.229  11.024   5.732
36100W        W78111   6.129   7.484   7.212
36101W        W78112   2.349   8.094   9.062
36102W        W78113   6.869  19.134  10.212
36103W        W78114   6.849  20.084   1.488
36104W        W78115   4.719  19.384   0.938
36105W        W78116   4.189   0.434   3.982
36106W        W78117   7.639  23.141   1.108
36107W        W78118  11.399  15.194   4.102
36108W        W78119  21.229  20.214  11.172
36109W        W78120  20.639   2.594   1.258
36110W        W78121  20.889  13.994   3.492
36111W        W78122   5.049  19.494   9.192
36112W        W78123   4.679  14.214   2.268
36113W        W78124   2.849  20.244  10.632
36114W        W78125   4.529  20.414   9.882
36115W        W78126  23.409  10.524   9.352
36116W        W78127  15.799   7.544   1.558
36117W        W78128  23.839  17.804  10.172
36118W        W78129  18.309  25.051  10.122
36119W        W78130   5.279  18.694  10.752
36120W        W78131   4.069  24.631   9.342
36121W        W78132  18.119  15.274   2.158
36122W        W78133  20.639   2.644  11.132
36123W        W78134  16.079  11.164   3.942
36124W        W78135  12.369   0.854   3.342
36125W        W78136  16.339  16.834   1.548
36126W        W78137  25.099   6.154   1.438
36127W        W78138   6.579  17.554   2.702
36128W        W78139   1.449  24.621   2.138
36129W        W78140  14.439  20.294  10.642
36130W        W78141  14.309  13.424   3.592
36131W        W78142  11.979   5.344   9.872
36132W        W78143  14.869  16.284  11.752
36133W        W78144   0.379  20.174   2.542
36134W        W78145  10.719  17.424   0.918
36135W        W78146  12.019   5.824  14.282
36136W        W78147  20.579  22.781   9.642
36137W        W78148  14.289   4.314   0.618
36138W        W78149  20.159   2.394   1.428
36139W        W78150  25.259  15.914  10.832
36140W        W78151  17.249  25.391   9.492
36141W        W78152   7.749  16.154  10.162
36142W        W78153   4.659  17.214   1.668
36143W        W78154   2.509   6.654  11.162
36144W        W78155   6.839   9.204   3.252
36145W        W78156   7.579  11.414  15.362
36146W        W78157  25.519  14.024   2.582
36147W        W78158  13.889   0.404   0.998
36148W        W78159   7.109  18.734   8.702
36149W        W78160  10.759  20.604   2.542
36150W        W78161  13.739   4.304   8.582
36151W        W78162  18.189  11.514   1.788
36152W        W78163   9.159   7.774   1.528
36153W        W78164   3.549  23.311   8.702
36154W        W78165  11.659   7.754   8.462
36155W        W78166   5.729  25.461   0.198
36156W        W78167  25.089  19.904  11.492
36157W        W78168  14.309  23.261   1.458
36158W        W78169   6.569  24.141   2.622
36159W        W78170  20.689  18.484  10.872
36160W        W78171  10.549   6.494   1.768
36161W        W78172   3.369  18.464   0.428
36162W        W78173  15.529   9.794  14.682
36163W        W78174  15.339   7.674  10.432
36164W        W78175  12.389  23.621  10.232
36165W        W78176  19.909  13.004  15.542
36166W        W78177   3.239  17.254   1.828
36167W        W78178   1.169  14.574   3.032
36168W        W78179  18.379  23.501   1.318
36169W        W78180   7.509   7.084   0.528
36170W        W78181   5.689   7.504  10.122
36171W        W78182  20.229  20.764   2.398
36172W        W78183  19.069  12.474   2.762
36173W        W78184  15.919  19.334   3.692
36174W        W78185  20.899  20.924  11.332
36175W        W78186  21.579  10.474  11.202
36176W        W78187  21.129  25.201  15.712
36177W        W78188  15.039  16.664   1.658
36178W        W78189   7.879   3.274   9.002
36179W        W78190  25.069  19.524   0.398
36180W        W78191  11.559  25.461  11.272
36181W        W78192  15.009  20.544  15.852
36182W        W78193   3.839   0.994   2.318
36183W        W78194  20.239  16.024   1.608
36184W        W78195   0.439   8.904   1.528
36185W        W78196  16.579  22.771  15.832
36186W        W78197  10.189  12.354   4.142
36187W        W78198   7.729  20.184   1.478
36188W        W78199  25.029   6.774   9.762
36189W        W78200   1.509   1.584   8.042
36190W        W78201   6.949  24.661   0.728
36191W        W78202   5.259   4.374   8.752
36192W        W78203   6.729   0.174  10.452
36193W        W78204  11.069   5.794   7.622
36194W        W78205  18.109  25.121   0.488
36195W        W78206  11.509  13.394  10.232
36196W        W78207  18.189  11.334   1.298
36197W        W78208  20.049  24.771   2.338
36198W        W78209   3.109   1.764   1.438
36199W        W78210  17.919  10.844   0.998
36200W        W78211   2.059   3.124   2.842
36201W        W78212  18.589  14.454   9.252
36202W        W78213  21.249  11.654   2.468
36203W        W78214  24.189   9.374   1.838
36204W        W78215  24.579  24.521   7.942
36205W        W78216  21.749  13.084   0.928
36206W        W78217  21.959  16.744  11.292
36207W        W78218  11.459  10.364  15.072
36208W        W78219  23.649  18.384  10.072
36209W        W78220  17.329   4.334   3.802
36210W        W78221   4.839  10.434  10.252
36211W        W78222  21.079  10.764   9.072
36212W        W78223  23.239  10.674   0.948
36213W        W78224  13.569  15.184  10.512
36214W        W78225  17.899   6.274   1.318
36215W        W78226   6.709  19.884   9.372
36216W        W78227   4.499  23.531  11.412
36217W        W78228  18.469   2.324   9.752
36218W        W78229  23.789   5.954   9.072
36219W        W78230   6.889  13.074  15.802
36220W        W78231  12.209  19.034   2.088
36221W        W78232   3.169  22.771   8.592
36222W        W78233  17.849   2.554   4.472
36223W        W78234  25.579  10.564  10.642
36224W        W78235  22.379  22.051   1.718
36225W        W78236   3.839  19.604   2.592
36226W        W78237  22.119  25.431  11.202
36227W        W78238   8.669  17.534   3.402
36228W        W78239   4.709  15.554   0.108
36229W        W78240  23.859   6.304   1.848
36230W        W78241   8.809  21.354   9.512
36231W        W78242   6.679  20.934   3.722
36232W        W78243  16.889  15.664   1.948
36233W        W78244  17.279  22.891   1.498
36234W        W78245  22.979  16.344  12.222
36235W        W78246   4.039  23.571  15.402
36236W        W78247  14.689  19.614   8.942
36237W        W78248   3.129  25.231   1.068
36238W        W78249  14.079  23.701   0.818
36239W        W78250  23.319  13.004   1.848
36240W        W78251  10.469  24.201   2.258
36241W        W78252  18.959  18.694   1.968
36242W        W78253   0.001   2.734   8.972
36243W        W78254  19.039   2.774  10.972
36244W        W78255  20.759   7.554  15.452
36245W        W78256   0.669   3.984  10.572
36246W        W78257   5.859   5.094   2.178
36247W        W78258   3.579   4.114   1.008
36248W        W78259   4.729   3.864  11.092
36249W        W78260  18.389  20.094   2.762
36250W        W78261  22.799   5.634   1.208
36251W        W78262   0.689  21.581   2.208
36252W        W78263  15.339  24.791   7.942
36253W        W78264   0.569  14.484   7.872
36254W        W78265  23.899   0.244   3.972
36255W        W78266   6.049   1.364  11.372
36256W        W78267  13.999  11.034  14.522
36257W        W78268   6.589  18.334   9.952
36258W        W78269   0.159  18.294  11.872
36259W        W78270  19.549  15.634  11.692
36260W        W78271  11.299  18.904   4.332
36261W        W78272  19.939   3.134  15.172
36262W        W78273   3.589  20.064   7.872
36263W        W78274  14.989  16.244   4.502
36264W        W78275   5.729  24.121   2.822
36265W        W78276  11.309  17.194   0.208
36266W        W78277   4.159  21.451   0.178
36267W        W78278   1.499  15.474   8.702
36268W        W78279  17.089   9.524  10.082
36269W        W78280  13.909  24.361   3.402
36270W        W78281  12.919  21.074   1.008
36271W        W78282  15.279  12.734  14.042
36272W        W78283  10.959  12.624  15.652
36273W        W78284  11.459   9.534   9.082
36274W        W78285   8.629  19.224   0.468
36275W        W78286  16.389  23.711   1.138
36276W        W78287  11.739  11.654   9.902
36277W        W78288   3.399  13.124   2.792
36278W        W78289  12.299   6.424  15.352
36279W        W78290  22.759  18.524  10.782
36280W        W78291  24.029   5.274  10.662
36281W        W78292  17.049  11.124  15.332
36282W        W78293   7.289  15.614   3.352
36283W        W78294  19.319  19.404  11.842
36284W        W78295  23.179  25.221  15.842
36285W        W78296   6.239  19.314  10.812
36286W        W78297  13.869  19.044   1.668
36287W        W78298  23.219  12.594  11.172
36288W        W78299   2.779  20.114   3.612
36289W        W78300   9.259   5.614  10.032
36290W        W78301  25.089  23.551   2.078
36291W        W78302  18.999   5.474   3.882
36292W        W78303   4.629   8.464   0.988
36293W        W78304   2.969  24.261   8.852
36294W        W78305  21.619  16.114   1.918
36295W        W78306   3.219  20.904   1.778
36296W        W78307  10.119   9.224   2.582
36297W        W78308  22.179   0.024   9.662
36298W        W78309  18.729  15.434  10.882
36299W        W78310  14.779  15.554  10.812
36300W        W78311  25.559   5.344  10.972
36301W        W78312  23.059  16.074   1.408
36302W        W78313  19.979  17.774  11.102
36303W        W78314  10.369  17.484   8.922
36304W        W78315  14.549   9.614   1.168
36305W        W78316  13.089   3.294  15.412
36306W        W78317  13.469   2.524   2.148
36307W        W78318   1.609  10.224   0.398
36308W        W78319   9.419  12.404  11.252
36309W        W78320  10.439  18.774   1.698
36310W        W78321   0.179  10.924   3.252
36311W        W78322  13.629  15.694  10.442
36312W        W78323   5.869   7.824   0.958
36313W        W78324  24.679  21.354   3.142
36314W        W78325   3.219   0.284   1.838
36315W        W78326  21.839   2.364   9.902
36316W        W78327   4.369  12.494   0.938
36317W        W78328   0.419   4.064  11.912
36318W        W78329   1.329   2.994   9.822
36319W        W78330   7.089  14.604   3.872
36320W        W78331  14.409  20.714   0.428
36321W        W78332  23.609  14.594   1.188
36322W        W78333  20.749  22.711   3.192
36323W        W78334  13.239   7.964   1.318
36324W        W78335  19.219   8.114   3.442
36325W        W78336  11.579  17.824  11.232
36326W        W78337  10.919  14.924   3.302
36327W        W78338  18.009  25.211   1.488
36328W        W78339   2.359  22.421  10.322
36329W        W78340  25.219  21.391  11.992
36330W        W78341  20.029  17.584   8.202
36331W        W78342   5.949   2.664   3.092
36332W        W78343  21.429   3.844  10.382
36333W        W78344  13.769  23.181   2.358
36334W        W78345  14.919   6.014  10.362
36335W        W78346   6.939   7.764   0.688
36336W        W78347  24.229   0.344   7.982
36337W        W78348   7.589  12.774   7.382
36338W        W78349  25.329  20.824  10.612
36339W        W78350  21.139   7.394   4.192
36340W        W78351  15.799  14.604   9.042
36341W        W78352   0.859  18.854  10.402
36342W        W78353   5.909   6.974  15.802
36343W        W78354   4.899   7.094   9.442
36344W        W78355  22.979   4.644   2.428
36345W        W78356  13.599  17.354   8.592
36346W        W78357  12.139   3.284  15.392
36347W        W78358   5.179  13.014   2.438
36348W        W78359   7.369   9.884   2.782
36349W        W78360  10.609  13.444   9.542
36350W        W78361   1.399  25.451   0.368
36351W        W78362   2.109   9.924   2.872
36352W        W78363  19.419  23.301   7.332
36353W        W78364  25.359  22.651   8.382
36354W        W78365  19.739  20.454   3.272
36355W        W78366  14.719  23.831   8.232
36356W        W78367  21.939  20.554  10.602
36357W        W78368   6.049   0.914  15.742
36358W        W78369  25.139  25.581   8.882
36359W        W78370   2.079  20.914   8.772
36360W        W78371  22.139   0.324   0.648
36361W        W78372  13.799  21.911   1.858
36362W        W78373  16.389  23.991   8.392
36363W        W78374   7.269  23.411   2.632
36364W        W78375   8.579  21.531   4.492
36365W        W78376   0.379  22.061  12.372
36366W        W78377   2.039   1.684   2.852
36367W        W78378   8.279   2.544   1.898
36368W        W78379  17.259  11.124   8.852
36369W        W78380  22.219  13.494  11.712
36370W        W78381   7.259   6.614  15.652
36371W        W78382  19.999  20.194  10.222
36372W        W78383  25.229  23.071   8.712
36373W        W78384  23.959  25.031  11.732
36374W        W78385  15.739   4.034   3.562
36375W        W78386   7.349  10.554   9.082
36376W        W78387   1.879   3.064   8.032
36377W        W78388  17.749  17.534   1.848
36378W        W78389  11.639   2.064   0.998
36379W        W78390   8.379   2.594   4.272
36380W        W78391  22.249  23.391   9.802
36381W        W78392  22.749  17.214   9.182
36382W        W78393   7.939   0.744   1.418
36383W        W78394   8.979  17.934  14.922
36384W        W78395  13.739   9.744  15.542
36385W        W78396  24.459  19.304   7.952
36386W        W78397   6.419  10.304   1.698
36387W        W78398   6.999  22.161  15.062
36388W        W78399  17.239  13.044   3.952
36389W        W78400   7.659   2.354   8.642
36390W        W78401  24.259   3.284   1.108
36391W        W78402  10.799  20.644  10.572
36392W        W78403   7.239   4.484   3.612
36393W        W78404  16.689  10.804  14.902
36394W        W78405   5.229   7.244   9.812
36395W        W78406   9.799   2.274   1.268
36396W        W78407   5.819  16.064  11.492
36397W        W78408   6.399   4.794   3.212
36398W        W78409  25.409  13.254   9.102
36399W        W78410   0.889   1.434   0.188
36400W        W78411  19.159  17.254   8.512
36401W        W78412  16.699  25.441   0.108
36402W        W78413  15.089   5.914   9.302
36403W        W78414   6.569  23.651   8.802
36404W        W78415  14.859  15.044   0.408
36405W        W78416  19.449   6.124  11.152
36406W        W78417  15.299   0.184   3.062
36407W        W78418  11.239  21.981   9.572
36408W        W78419  18.519  14.764   0.198
36409W        W78420   5.409  16.524   1.588
36410W        W78421  11.339   2.554   8.272
36411W        W78422  15.269  24.721   0.018
36412W        W78423  14.399  25.031   0.078
36413W        W78424  20.169  22.631   8.082
36414W        W78425  23.769   9.874   6.632
36415W        W78426   4.739  17.804   0.498
36416W        W78427  19.389   7.694   1.998
36417W        W78428  13.469   2.344   9.592
36418W        W78429  17.019   5.844   2.048
36419W        W78430  13.799  16.404   3.762
36420W        W78431   2.149   2.064   9.302
36421W        W78432  12.199  12.744  13.542
36422W        W78433  12.269  24.921  10.632
36423W        W78434  19.229  10.594   1.268
36424W        W78435   5.929   2.544   9.952
36425W        W78436  22.599   8.304   8.582
36426W        W78437   0.079   7.384   9.802
36427W        W78438  16.069   3.864   8.952
36428W        W78439   7.269  15.094   0.888
36429W        W78440   2.349  20.944   9.172
36430W        W78441   3.109  11.574  10.852
36431W        W78442  10.049   1.514   0.818
36432W        W78443  12.929   5.784   9.202
36433W        W78444  14.289  11.354   4.372
36434W        W78445  20.009   3.574   3.922
36435W        W78446   4.709  16.544   8.712
36436W        W78447   5.849   5.904   9.612
36437W        W78448   7.819  25.061   1.388
36438W        W78449   6.419   5.164   0.638
36439W        W78450   0.749   1.674   2.438
36440W        W78451  13.939   7.304   8.602
36441W        W78452  22.859  17.444   1.528
36442W        W78453   7.389  25.281   3.202
36443W        W78454   8.929  12.194   0.928
36444W        W78455  14.069  11.534   1.658
36445W        W78456  17.299  15.104   9.102
36446W        W78457  20.689   2.464   9.312
36447W        W78458   5.719  14.634  11.032
36448W        W78459   9.159  16.794   8.592
36449W        W78460  17.079   1.084  15.442
36450W        W78461   4.019  21.074   3.172
36451W        W78462   2.149  14.024  10.772
36452W        W78463   2.019  19.134   8.922
36453W        W78464   2.379  12.564   7.492
36454W        W78465  23.129  17.744  10.402
36455W        W78466   5.299  12.504  15.332
36456W        W78467  17.489  21.411   0.508
36457W        W78468  24.549  15.584  11.942
36458W        W78469  11.869  10.234   3.002
36459W        W78470  15.179  12.084   1.078
36460W        W78471  10.119  17.804  10.252
36461W        W78472   3.739  16.294   7.692
36462W        W78473   7.619   6.154  14.962
36463W        W78474  19.189   6.314   9.492
36464W        W78475  14.069   7.894  15.182
36465W        W78476   1.969  24.451  10.582
36466W        W78477  16.819  24.381   3.392
36467W        W78478  21.879  17.894   7.932
36468W        W78479  15.089  12.754  14.482
36469W        W78480   5.069  11.314   2.068
36470W        W78481  23.149   8.994   9.102
36471W        W78482   3.149  11.984  10.572
36472W        W78483   2.859  21.364   0.828
36473W        W78484  15.419  17.014   4.762
36474W        W78485  20.469   7.934   9.402
36475W        W78486   0.959   6.894   7.762
36476W        W78487   3.069  12.334   8.492
36477W        W78488  17.439  20.974   1.658
36478W        W78489   3.669  20.854   1.318
36479W        W78490  14.019  23.831   3.462
36480W        W78491   2.669   0.494   9.522
36481W        W78492  18.329   3.994   9.162
36482W        W78493   7.439   2.084  10.092
36483W        W78494  15.479   3.984  14.612
36484W        W78495   1.859  18.524   9.522
36485W        W78496  22.829   5.684   0.578
36486W        W78497  10.519  10.164  15.332
36487W        W78498   7.929   5.694   8.022
36488W        W78499   2.459  25.421   8.062
36489W        W78500   1.219   5.974   9.692
36490W        W78501  24.399  18.714   9.872
36491W        W78502  13.199   4.964   7.742
36492W        W78503   4.379   8.254   7.642
36493W        W78504  13.709   5.224  15.712
36494W        W78505  14.609  20.014   2.742
36495W        W78506  22.929  22.231   8.412
36496W        W78507   0.609   9.424   1.638
36497W        W78508  19.749   6.134   9.322
36498W        W78509  19.579   7.024   8.612
36499W        W78510   2.869  23.861  11.312
36500W        W78511  14.939   2.864  10.062
36501W        W78512  18.329  24.211   3.382
36502W        W78513  11.749   3.514   3.072
36503W        W78514  25.359   7.144   9.482
36504W        W78515   7.189   5.984  15.602
36505W        W78516   2.699  14.704  15.752
36506W        W78517  15.289  23.891   9.672
36507W        W78518   4.729  19.874   0.128
36508W        W78519  20.359  12.704   0.098
36509W        W78520   1.219   4.744   2.428
36510W        W78521   0.799   1.174   1.518
36511W        W78522  13.929  16.544   1.968
36512W        W78523   7.229  13.934   0.838
36513W        W78524  10.349  14.894   0.268
36514W        W78525  24.039   5.994   2.348
36515W        W78526   1.559   5.834   9.302
36516W        W78527  11.599  22.301   0.078
36517W        W78528  21.969   9.054   7.662
36518W        W78529  13.809  16.494   1.028
36519W        W78530  17.379  18.654   0.588
36520W        W78531  17.809  15.164  10.012
36521W        W78532  14.239  10.664  15.012
36522W        W78533  24.479  17.034  10.832
36523W        W78534  18.229   4.234   1.718
36524W        W78535  11.969   7.124   1.628
36525W        W78536  21.829   0.214  11.092
36526W        W78537   3.619  10.164   9.542
36527W        W78538  14.169  14.744   2.068
36528W        W78539  24.829  18.764   9.592
36529W        W78540  16.449   4.074   9.322
36530W        W78541  17.889  16.854  10.742
36531W        W78542  10.359   5.794   1.588
36532W        W78543   2.829   8.214  10.612
36533W        W78544   7.389  21.571   2.842
36534W        W78545  19.019   2.764   0.378
36535W        W78546  12.689  16.244   2.088
36536W        W78547  22.959  17.604  10.902
36537W        W78548   4.869   3.744   7.592
36538W        W78549   9.649  17.864  15.252
36539W        W78550   3.889  14.904  10.582
36540W        W78551   6.099  10.864   9.372
36541W        W78552   3.549   8.514  10.922
36542W        W78553  14.739  17.304  15.102
36543W        W78554  25.409  21.054   2.248
36544W        W78555   4.159  14.464   9.282
36545W        W78556   5.919   4.224   2.522
36546W        W78557   0.959  21.781   1.748
36547W        W78558  18.629   2.804   8.892
36548W        W78559  11.059  16.744  15.352
36549W        W78560   2.379  12.914   7.862
36550W        W78561  13.789  22.791   8.042
36551W        W78562   3.329   3.074   8.792
36552W        W78563  16.509  10.474   1.968
36553W        W78564  13.229   8.064  10.162
36554W        W78565  22.889   8.324   3.242
36555W        W78566   8.019   1.464   2.532
36556W        W78567  16.279  21.164  11.282
36557W        W78568   2.429  10.654   2.562
36558W        W78569  14.159  16.164  14.512
36559W        W78570  10.419  19.054   2.388
36560W        W78571  10.139  22.131   3.202
36561W        W78572  14.579   8.384  10.152
36562W        W78573   1.099   8.244   8.652
36563W        W78574   8.599   9.674   9.802
36564W        W78575  13.599  19.774   1.038
36565W        W78576  19.019   6.034   8.542
36566W        W78577   1.739  16.954   9.432
36567W        W78578  15.129   1.134   7.982
36568W        W78579  24.919  24.391   0.968
36569W        W78580  14.349   9.464  15.552
36570W        W78581  13.299  21.591   1.808
36571W        W78582  16.039  23.361   2.468
36572W        W78583   7.449  18.094  10.012
36573W        W78584  10.239  16.554   2.398
36574W        W78585   0.859  19.974   8.532
36575W        W78586   6.309  17.284   1.878
36576W        W78587  24.609  24.831   3.262
36577W        W78588   4.649   8.254   1.888
36578W        W78589  17.109   8.094   1.428
36579W        W78590  20.269  19.174   2.008
36580W        W78591   1.199  21.911   9.392
36581W        W78592   4.119   5.464  15.342
36582W        W78593  14.059  19.184   1.118
36583W        W78594  23.669  16.964   8.702
36584W        W78595   0.829   6.124   8.722
36585W        W78596   7.299   6.154   3.462
36586W        W78597  10.619  16.674  10.432
36587W        W78598  25.589  13.214  11.032
36588W        W78599  24.119  15.224  15.802
36589W        W78600  23.459  17.174   8.112
36590W        W78601  25.199  14.134   7.772
36591W        W78602   2.719  25.121   9.352
36592W        W78603  22.759   9.604  15.492
36593W        W78604  14.149   8.204   4.542
36594W        W78605  24.789  21.821   8.612
36595W        W78606   6.109  13.324   0.998
36596W        W78607   1.029   5.134   0.938
36597W        W78608  17.039   4.764   9.132
36598W        W78609   2.939  10.554   1.138
36599W        W78610  22.499   0.664   3.712
36600W        W78611   4.349  10.144  10.172
36601W        W78612  15.559  21.204   1.818
36602W        W78613  19.329  20.704   0.938
36603W        W78614  13.639  15.994  14.422
36604W        W78615  13.769  23.731   3.862
36605W        W78616   9.749  19.664  15.732
36606W        W78617  18.129  20.614   8.292
36607W        W78618  15.199   9.214   0.688
36608W        W78619   2.099  20.184   1.458
36609W        W78620  21.309   6.304   8.762
36610W        W78621   3.289  25.531   2.772
36611W        W78622   0.859   0.074   8.342
36612W        W78623  16.569  25.341   3.162
36613W        W78624  12.469  12.814   4.382
36614W        W78625  20.789  24.771   9.532
36615W        W78626  18.049   3.754   3.712
36616W        W78627   9.239   3.384   3.182
36617W        W78628  19.079   0.114   7.442
36618W        W78629  16.289  16.544   2.358
36619W        W78630  10.199  13.664  10.762
36620W        W78631  20.319  10.254   1.388
36621W        W78632   9.419   7.154   4.062
36622W        W78633  13.009   4.624  15.822
36623W        W78634  18.399   2.024   2.532
36624W        W78635  15.149  23.401   1.578
36625W        W78636  15.569  16.094  14.802
36626W        W78637  21.959  21.004   3.192
36627W        W78638   2.589  17.614   2.178
36628W        W78639  14.319   5.624   1.018
36629W        W78640   0.489   0.004   8.792
36630W        W78641  25.139  15.304   3.562
36631W        W78642  16.489   0.624   7.992
36632W        W78643  13.969   9.984   1.248
36633W        W78644  19.659   7.154   1.758
36634W        W78645   5.319   2.324  10.692
36635W        W78646  20.419  16.324  11.042
36636W        W78647   7.309  14.724   9.392
36637W        W78648   5.709  21.921   2.148
36638W        W78649  17.529   7.194   0.078
36639W        W78650   9.769  23.171  10.212
36640W        W78651   5.619  23.061   2.642
36641W        W78652  17.389   4.914   3.142
36642W        W78653  21.279  15.054   1.238
36643W        W78654   9.199  22.091   0.318
36644W        W78655  16.599  15.614   4.282
36645W        W78656  15.569   2.424  10.232
36646W        W78657  22.859  18.654   0.188
36647W        W78658   7.859  21.361   9.002
36648W        W78659   4.049   9.264  10.642
36649W        W78660   8.989  12.574   1.888
36650W        W78661   4.329  15.674   2.128
36651W        W78662   4.069   6.294   9.522
36652W        W78663   2.019   3.254   0.558
36653W        W78664  19.809   6.444   1.208
36654W        W78665  12.319   9.974  15.202
36655W        W78666  22.499   7.774   1.848
36656W        W78667   6.799   7.054   0.058
36657W        W78668  14.979   7.324   9.022
36658W        W78669  18.969   6.744   9.182
36659W        W78670   9.719  15.634   8.882
36660W        W78671  14.029  19.484   3.092
36661W        W78672   7.069   1.404   8.992
36662W        W78673  24.019   1.004  10.392
36663W        W78674  23.919   8.224   0.508
36664W        W78675   6.369  12.254   9.512
36665W        W78676  11.809   1.314   3.432
36666W        W78677  23.349  14.284   8.562
36667W        W78678  17.439   5.884   0.628
36668W        W78679  22.099  10.754   3.662
36669W        W78680  17.979  17.094  12.182
36670W        W78681  16.009   5.244  11.542
36671W        W78682  20.769  12.664   9.002
36672W        W78683   3.129   0.464  15.752
36673W        W78684   4.319  10.864   9.572
36674W        W78685  18.319  23.041   7.272
36675W        W78686  17.919  10.274   3.742
36676W        W78687   4.209  25.221   8.642
36677W        W78688  21.399  16.254   7.872
36678W        W78689  25.279  13.294   0.238
36679W        W78690  18.039   7.524   1.398
36680W        W78691  20.049  14.744   2.098
36681W        W78692   4.479  18.384   3.552
36682W        W78693   8.279  22.961   0.858
36683W        W78694  19.269  17.144   1.388
36684W        W78695  23.929   3.884  11.522
36685W        W78696  24.919   2.394   1.408
36686W        W78697  23.729  13.904   2.098
36687W        W78698  17.289  22.161   9.672
36688W        W78699  13.799  12.504  14.522
36689W        W78700   5.219  21.921   2.098
36690W        W78701   2.869  22.351   7.242
36691W        W78702   3.399   5.424  15.452
36692W        W78703   5.079   1.994   0.528
36693W        W78704   9.449   2.384   8.602
36694W        W78705  21.929  24.271   2.308
36695W        W78706   0.429   8.954   8.792
36696W        W78707   6.289  14.984   2.732
36697W        W78708   6.549   7.034  10.672
36698W        W78709  24.359   3.664   0.598
36699W        W78710   1.129   8.394  11.732
36700W        W78711   4.379   6.244   0.188
36701W        W78712  24.059  20.884   2.932
36702W        W78713  20.469  25.111   9.882
36703W        W78714   4.599  21.871   8.512
36704W        W78715  14.859  16.194   9.942
36705W        W78716   2.639  22.391   3.132
36706W        W78717   7.769  10.674   9.732
36707W        W78718  23.769  17.424  11.032
36708W        W78719   9.369   3.594   1.328
36709W        W78720  12.689  21.511   0.618
36710W        W78721   4.119  18.514  15.512
36711W        W78722  18.309   2.314  12.022
36712W        W78723  18.719   8.584  15.462
36713W        W78724  21.379  23.051  10.342
36714W        W78725  24.199  16.984   9.862
36715W        W78726  10.369  17.414   2.068
36716W        W78727  14.389   7.824   0.298
36717W        W78728  19.479  15.374  10.202
36718W        W78729  17.219  19.414  10.152
36719W        W78730   4.069   8.224   9.422
36720W        W78731  17.879   2.344   8.172
36721W        W78732   8.589   8.134   0.378
36722W        W78733  12.409  13.864  10.362
36723W        W78734  16.119   5.904   1.458
36724W        W78735  14.759  11.604   3.572
36725W        W78736   2.979   0.044   8.702
36726W        W78737  13.349  18.984   2.512
36727W        W78738   8.969  18.434   9.332
36728W        W78739  19.429  12.184  15.232
36729W        W78740  12.599  11.334  15.402
36730W        W78741  17.539  23.951   0.338
36731W        W78742   7.699  16.634   0.038
36732W        W78743  24.119   9.184   2.902
36733W        W78744  21.949  14.784   2.612
36734W        W78745  16.929  16.044   1.018
36735W        W78746  23.119  12.554   1.158
36736W        W78747   2.619  22.031   0.738
36737W        W78748  22.719  14.954   8.512
36738W        W78749   4.079  16.974   8.892
36739W        W78750  18.559  18.134   9.692
36740W        W78751  20.109   6.644  10.732
36741W        W78752   4.329  10.274   3.042
36742W        W78753  12.829   3.464   9.922
36743W        W78754  10.289   5.224  10.012
36744W        W78755  18.299   0.104  11.782
36745W        W78756  25.039   6.494  15.192
36746W        W78757  25.279  14.554   2.298
36747W        W78758  15.389  17.454  15.812
36748W        W78759  16.859  10.734   0.828
36749W        W78760   3.799   3.624   4.122
36750W        W78761  11.859  24.941   3.652
36751W        W78762  24.499  11.334  10.932
36752W        W78763  10.189  14.484  10.752
36753W        W78764   1.129  11.324   9.812
36754W        W78765  18.119  10.134   9.432
36755W        W78766  21.679   8.664   7.412
36756W        W78767   9.909  21.931  15.622
36757W        W78768   6.949  10.984   1.138
36758W        W78769  17.469   4.414   8.812
36759W        W78770   2.569   2.144  15.132
36760W        W78771   9.529   5.444   2.952
36761W        W78772  19.019  22.791   8.062
36762W        W78773   9.929   3.144   1.418
36763W        W78774  16.989  19.614   0.828
36764W        W78775   3.009  13.864   0.608
36765W        W78776  24.269  24.331   3.432
36766W        W78777   6.579   2.324   1.638
36767W        W78778  16.219   3.334   4.522
36768W        W78779  10.569   9.714   1.698
36769W        W78780   5.559  20.264  10.962
36770W        W78781  10.949   2.064   1.728
36771W        W78782  11.249  19.774   1.838
36772W        W78783  23.229   0.894   0.728
36773W        W78784   6.759  17.194   2.168
36774W        W78785  16.389   0.194   9.252
36775W        W78786   5.389  24.521   1.318
36776W        W78787  16.399  24.011   4.292
36777W        W78788  21.979   6.604   0.828
36778W        W78789   4.189   7.444   6.882
36779W        W78790  10.319  24.171  11.432
36780W        W78791   0.239  17.954   8.902
36781W        W78792   6.219  22.391   8.962
36782W        W78793  19.289  11.934   2.478
36783W        W78794  24.299   3.114   8.672
36784W        W78795   7.799  12.424  15.162
36785W        W78796   5.239   4.054   9.172
36786W        W78797   3.249   3.984   8.932
36787W        W78798  11.019  24.381   8.622
36788W        W78799  13.079   1.694  14.552
36789W        W78800   1.399   7.304   6.092
36790W        W78801  15.349   6.044   3.352
36791W        W78802  18.729   7.924   0.638
36792W        W78803   4.899  12.934  15.802
36793W        W78804  22.429   1.104  10.622
36794W        W78805  20.149   5.664  15.822
36795W        W78806  17.539  13.144   0.768
36796W        W78807   9.469  22.441   0.528
36797W        W78808  15.929  18.214  11.142
36798W        W78809   8.039  22.631  15.542
36799W        W78810   8.869   9.574   2.672
36800W        W78811  11.409   5.884   8.612
36801W        W78812   8.269  12.024   7.522
36802W        W78813  10.959   9.564   9.362
36803W        W78814  17.519  25.281   7.882
36804W        W78815   7.239   0.484   9.002
36805W        W78816  23.509  10.684   0.408
36806W        W78817  23.159  12.964  10.672
36807W        W78818  24.279  22.051  12.022
36808W        W78819  20.629  17.154   7.862
36809W        W78820  22.179  25.511   2.822
36810W        W78821  16.189  21.991   7.362
36811W        W78822   8.039  18.814   9.002
36812W        W78823  25.039   6.734  11.262
36813W        W78824  25.449   4.994   2.782
36814W        W78825   4.819  22.711   1.868
36815W        W78826  15.239   9.674   8.782
36816W        W78827   2.199  23.731   3.212
36817W        W78828   4.979   7.754  10.992
36818W        W78829  21.169  14.894   8.712
36819W        W78830  16.429  12.004   2.702
36820W        W78831  14.549  13.534   3.102
36821W        W78832  23.009  20.474   2.418
36822W        W78833  16.559   1.844   8.482
36823W        W78834   4.289  22.841  11.062
36824W        W78835   5.909  13.004   8.162
36825W        W78836  15.769   6.274   3.232
36826W        W78837  22.309  12.554   9.052
36827W        W78838  10.999   2.624   0.818
36828W        W78839  19.579  21.264   2.802
36829W        W78840   6.559  18.664   1.218
36830W        W78841  13.019  19.384   1.008
36831W        W78842  19.889  10.114  15.642
36832W        W78843  16.039  21.851  15.422
36833W        W78844   5.999  24.961   1.998
36834W        W78845   8.949  11.584   3.202
36835W        W78846   4.959   3.394   9.872
36836W        W78847  14.569  18.294   2.348
36837W        W78848   7.549  10.884   2.522
36838W        W78849   9.129  12.264   0.218
36839W        W78850   5.049   4.834   7.952
36840W        W78851  13.039   7.694   3.832
36841W        W78852  22.349  22.431  11.262
36842W        W78853  23.269   7.444   0.978
36843W        W78854   1.449   1.964  10.382
36844W        W78855  10.069  13.154   0.198
36845W        W78856   7.389  22.651   1.088
36846W        W78857   3.269   1.744   8.702
36847W        W78858  13.909  23.271   3.662
36848W        W78859  16.709  11.384   0.228
36849W        W78860   2.289   4.964   1.328
36850W        W78861  22.959  24.551   2.128
36851W        W78862  10.359  20.724   1.508
36852W        W78863   3.379  22.681   1.528
36853W        W78864  20.799  21.344   1.718
36854W        W78865  11.139   0.304  10.232
36855W        W78866  16.889  12.574   1.098
36856W        W78867   1.049  10.034   9.212
36857W        W78868  14.139  17.364   3.022
36858W        W78869  14.149   0.574   9.082
36859W        W78870  20.019  11.684   8.272
36860W        W78871   3.389  22.841   2.048
36861W        W78872   1.809  24.041  11.352
36862W        W78873   3.599   9.904   9.102
36863W        W78874  17.979  25.081   2.592
36864W        W78875   2.289  13.044   7.372
36865W        W78876  17.469  18.894   1.438
36866W        W78877   5.269  23.801   9.232
36867W        W78878  24.869   1.984   0.078
36868W        W78879  14.029  13.914   4.582
36869W        W78880   3.769  10.774  14.912
36870W        W78881  13.699   9.364   1.578
36871W        W78882  18.829  19.144   9.952
36872W        W78883   2.719  22.491   8.502
36873W        W78884   5.259  14.304   0.938
36874W        W78885   9.799  17.384   3.182
36875W        W78886   5.099   4.824   2.632
36876W        W78887  13.039  17.404  10.342
36877W        W78888  18.249  17.554  15.662
36878W        W78889   9.629  25.181   2.298
36879W        W78890   4.139   0.054   8.332
36880W        W78891   4.679   2.974   1.288
36881W        W78892  11.689  14.304   9.972
36882W        W78893  14.349  12.084  15.332
36883W        W78894   2.329  15.674  10.822
36884W        W78895  20.039  16.824   0.288
36885W        W78896   6.519  12.024  10.432
36886W        W78897  20.549  16.204  10.192
36887W        W78898  11.289  18.384   8.682
36888W        W78899  23.439   4.654  11.042
36889W        W78900  19.679  16.024   1.778
36890W        W78901   9.879  16.934   3.052
36891W        W78902  19.229  21.791   9.452
36892W        W78903  18.719   6.324  14.892
36893W        W78904  20.639   0.434  10.302
36894W        W78905   5.479  15.194  11.682
36895W        W78906  14.819  14.514   0.438
36896W        W78907  17.609  13.044   9.562
36897W        W78908  19.299   8.054   0.658
36898W        W78909  11.139  11.204  15.082
36899W        W78910   0.799  17.694  10.362
36900W        W78911   1.189  10.324   1.578
36901W        W78912  18.399  14.004   7.552
36902W        W78913  13.189  15.444   3.312
36903W        W78914   1.419  15.554  11.432
36904W        W78915  19.719  13.434  11.442
36905W        W78916   0.969  18.904   3.702
36906W        W78917  21.159   5.384  10.882
36907W        W78918  13.159  23.161   0.318
36908W        W78919  23.019   8.754  10.042
36909W        W78920  16.599  23.021   0.378
36910W        W78921   1.439   5.584   2.552
36911W        W78922  15.609  24.571  10.972
36912W        W78923  22.449   1.964   7.922
36913W        W78924   6.109  16.424   9.412
36914W        W78925  20.829   8.844   2.448
36915W        W78926   9.999   0.634  15.362
36916W        W78927   9.889  12.404   2.542
36917W        W78928   3.279  24.571  10.372
36918W        W78929  13.489   2.204   8.492
36919W        W78930  25.049  18.654   2.098
36920W        W78931   9.839  15.774   1.178
36921W        W78932  15.829  25.251  15.542
36922W        W78933  16.329  24.201   1.168
36923W        W78934   7.319  15.104   8.892
36924W        W78935  16.189  14.334  15.722
36925W        W78936  24.459  10.694  10.162
36926W        W78937  23.579  16.004   1.188
36927W        W78938  15.309   1.584   2.942
36928W        W78939  11.499  12.654   2.772
36929W        W78940   8.789  12.864   0.178
36930W        W78941  20.369  21.144  12.262
36931W        W78942   5.189  17.624   0.678
36932W        W78943  23.649   6.034   9.562
36933W        W78944  10.669   7.544   0.638
36934W        W78945  25.269  13.284   7.942
36935W        W78946   2.569  20.174   1.728
36936W        W78947   1.789  23.551   8.752
36937W        W78948  23.239   8.214   2.582
36938W        W78949   8.089   5.494   2.268
36939W        W78950  22.149   4.264  10.992
36940W        W78951  20.629  11.524   1.118
36941W        W78952  22.789   7.624   1.048
36942W        W78953  14.909   3.224   4.032
36943W        W78954  13.859   3.174   3.612
36944W        W78955   3.289   0.914   8.962
36945W        W78956   9.659  18.294   4.142
36946W        W78957   5.349  21.881   8.582
36947W        W78958  21.269   1.394  15.732
36948W        W78959   6.519  22.301   3.652
36949W        W78960   6.929  23.791   2.592
36950W        W78961  24.919  21.831   8.092
36951W        W78962   0.409  14.694   9.742
36952W        W78963  12.019   9.064   4.832
36953W        W78964   6.649  21.054  10.372
36954W        W78965   5.939   7.874   2.542
36955W        W78966  16.649   1.954  11.192
36956W        W78967  24.559  22.231   9.372
36957W        W78968  17.399  20.514   9.282
36958W        W78969  14.689  11.984   1.028
36959W        W78970   5.349  17.564   3.192
36960W        W78971   7.079  20.794   0.998
36961W        W78972  23.799   3.264   8.082
36962W        W78973  16.989  15.804  14.442
36963W        W78974   1.109  12.824  15.632
36964W        W78975   2.629  16.594   3.192
36965W        W78976   2.879   2.674   6.892
36966W        W78977   3.279   8.554  10.142
36967W        W78978  12.369  20.714   3.322
36968W        W78979  24.469  10.474  10.792
36969W        W78980  21.009  10.744  10.322
36970W        W78981  14.399   9.524  14.712
36971W        W78982  25.119  17.814   8.562
36972W        W78983  12.089  19.624  11.062
36973W        W78984  13.119  13.364   2.468
36974W        W78985  11.519  15.584   1.978
36975W        W78986  18.589  13.724  15.772
36976W        W78987  24.499  17.624   7.822
36977W        W78988  12.519   4.214   9.682
36978W        W78989  21.009   4.484  15.432
36979W        W78990  21.759   9.584   9.402
36980W        W78991  10.919   6.954  10.112
36981W        W78992  10.529  23.411   0.238
36982W        W78993  23.999   8.214  10.672
36983W        W78994   0.729  25.141   7.122
36984W        W78995   2.999   2.294   2.812
36985W        W78996  25.249  24.461   3.732
36986W        W78997   5.709   8.484   8.612
36987W        W78998  10.459   5.414  15.122
36988W        W78999  18.399   5.674  10.962
36989W        W79000  16.729  21.154  10.172
36990W        W79001  12.829  24.201   1.238
36991W        W79002  11.129  18.094  15.042
36992W        W79003  13.279  10.124   1.098
36993W        W79004  22.029   8.534  11.512
36994W        W79005   1.979  13.944   2.118
36995W        W79006   5.379  14.794   9.412
36996W        W79007  18.939  11.364   1.098
36997W        W79008  14.549  13.474   4.082
36998W        W79009   1.129   6.074   9.182
36999W        W79010  22.549  13.284   9.862
37000W        W79011  10.149  13.414   2.428
37001W        W79012   5.659   0.804   9.792
37002W        W79013  15.099  18.144   2.498
37003W        W79014  17.449  18.644   3.282
37004W        W79015  13.579   2.014  15.322
37005W        W79016   2.309  21.641   3.702
37006W        W79017  14.729  23.661   1.448
37007W        W79018  10.589   9.814   8.702
37008W        W79019  15.499   6.994   0.288
37009W        W79020  21.399  15.354   1.698
37010W        W79021   9.939  21.144   1.738
37011W        W79022  20.819   7.394   2.208
37012W        W79023  14.509   0.714   8.742
37013W        W79024   6.099  14.924   8.382
37014W        W79025  13.919  21.991   9.982
37015W        W79026  21.689   0.684   1.378
37016W        W79027  20.029   8.824   8.232
37017W        W79028  10.639  10.134   3.732
37018W        W79029   3.789  12.564   0.628
37019W        W79030  24.009  20.154   1.448
37020W        W79031   3.289  17.114   8.702
37021W        W79032  18.849  24.171   2.368
37022W        W79033   7.849  15.744   8.762
37023W        W79034  23.209  21.204   1.978
37024W        W79035  14.949  13.074   1.178
37025W        W79036   1.279  14.104  11.302
37026W        W79037  19.079  10.904   3.382
37027W        W79038   8.099   6.084  15.472
37028W        W79039   9.639   6.814   2.762
37029W        W79040  20.219  24.251  12.362
37030W        W79041  17.019   2.924   9.582
37031W        W79042  19.879   0.264   8.932
37032W        W79043   1.219  25.171   1.208
37033W        W79044  19.049  10.364  15.622
37034W        W79045  20.349   7.154  10.772
37035W        W79046  16.839   4.034  10.952
37036W        W79047   9.289  13.254   9.802
37037W        W79048  24.969   0.464   0.528
37038W        W79049  15.789   4.644  15.612
37039W        W79050  23.699  23.131   8.972
37040W        W79051   5.419  14.784   0.968
37041W        W79052   9.279   4.714   8.022
37042W        W79053  21.489   8.054   1.858
37043W        W79054   0.069  20.594   1.158
37044W        W79055   7.979   6.274   0.078
37045W        W79056   4.889   9.724   3.222
37046W        W79057  11.139  12.274   3.622
37047W        W79058   7.099  20.644   8.752
37048W        W79059  14.469  24.451   9.882
37049W        W79060   5.099   7.264   8.022
37050W        W79061   5.889  17.904   0.258
37051W        W79062  16.709  19.194   8.162
37052W        W79063  14.749   9.514   0.688
37053W        W79064  20.789   7.874   1.498
37054W        W79065   8.049  20.204  10.562
37055W        W79066  11.469   6.564   7.372
37056W        W79067   9.579  13.084  15.812
37057W        W79068  14.359   1.834  11.502
37058W        W79069  17.379  15.264   3.632
37059W        W79070  15.999  15.074   3.982
37060W        W79071   9.369  21.671   1.258
37061W        W79072  18.879   5.644  10.782
37062W        W79073  16.679   3.034  15.412
37063W        W79074   8.449  20.554   4.862
37064W        W79075  12.149   4.374   0.688
37065W        W79076  19.839   4.114  15.152
37066W        W79077  10.589  14.074   4.202
37067W        W79078  14.699  13.094   9.702
37068W        W79079  12.779  20.624   9.502
37069W        W79080  19.019  18.414   7.772
37070W        W79081   6.509  24.911   2.772
37071W        W79082  21.549  14.814   1.628
37072W        W79083  22.799  22.421   9.722
37073W        W79084  16.149  14.694   0.998
37074W        W79085  12.749  21.094  10.532
37075W        W79086  13.119   9.944   2.772
37076W        W79087   3.069   7.824  10.892
37077W        W79088   1.459   1.084   2.448
37078W        W79089  15.639  23.111  12.212
37079W        W79090   3.049   4.274   9.342
37080W        W79091  11.749  20.894   1.348
37081W        W79092  18.109   0.574  15.712
37082W        W79093  12.779  20.694   4.192
37083W        W79094  11.159  10.554   1.748
37084W        W79095  23.549  12.864   1.378
37085W        W79096  12.739  20.284   1.218
37086W        W79097   5.949  11.794   0.558
37087W        W79098  16.889   4.094   1.128
37088W        W79099   4.949   6.414   2.552
37089W        W79100  13.389   8.994   0.258
37090W        W79101  10.099   7.674   2.348
37091W        W79102  15.049   1.564   2.488
37092W        W79103  13.609  15.544   1.318
37093W        W79104  25.459   5.154   7.112
37094W        W79105   7.389  23.091   9.982
37095W        W79106   8.459   2.634   8.442
37096W        W79107  18.319   2.334   0.018
37097W        W79108  19.949   2.814   8.582
37098W        W79109  16.349  21.981  10.772
37099W        W79110  23.279   0.674  10.132
37100W        W79111  14.229  15.864   0.468
37101W        W79112   7.809   9.594   3.042
37102W        W79113  22.879   7.874   2.812
37103W        W79114   3.829   8.774   8.802
37104W        W79115  15.469   5.124   2.348
37105W        W79116  23.969  11.694  10.272
37106W        W79117  24.119  23.541   0.998
37107W        W79118  13.379  20.664   1.998
37108W        W79119  20.099   0.284  10.322
37109W        W79120  14.529   5.284  15.062
37110W        W79121   6.199  18.504  11.052
37111W        W79122  17.329  14.484   1.308
37112W        W79123  10.559   2.474   0.668
37113W        W79124   0.429   5.914  10.232
37114W        W79125   8.969   4.344  10.272
37115W        W79126   4.189  23.711  14.842
37116W        W79127  14.069   9.654   3.002
37117W        W79128   7.179  13.844   2.168
37118W        W79129  16.969  20.694  11.752
37119W        W79130   7.799  21.354  11.872
37120W        W79131  14.489   2.314   0.468
37121W        W79132   7.039  18.244   9.672
37122W        W79133  19.719  13.074   9.282
37123W        W79134   9.929   7.014   3.152
37124W        W79135   4.959   9.794   7.152
37125W        W79136  13.969  18.324  15.452
37126W        W79137  13.489  17.044  10.472
37127W        W79138   0.219   7.874  10.532
37128W        W79139  22.639  25.581  12.712
37129W        W79140  16.259  24.961   2.378
37130W        W79141  15.619  11.794   3.212
37131W        W79142   1.009   9.784   8.762
37132W        W79143   6.879  24.651  15.122
37133W        W79144  12.839   4.254   1.798
37134W        W79145   3.599   2.014  10.732
37135W        W79146   3.749  13.484   2.792
37136W        W79147  14.789  22.811   2.428
37137W        W79148   5.199   2.714   1.338
37138W        W79149  12.769   5.114  15.462
37139W        W79150   8.589   5.334   9.342
37140W        W79151   7.219  13.214   4.222
37141W        W79152   3.799  23.971  10.512
37142W        W79153   0.439   2.174  10.452
37143W        W79154  15.859  17.904   8.952
37144W        W79155   8.859   6.694  10.962
37145W        W79156   9.249   4.954   1.858
37146W        W79157   7.799  19.244   1.518
37147W        W79158   0.239  11.384   1.008
37148W        W79159  11.849  13.264   2.892
37149W        W79160   8.559  23.411   8.402
37150W        W79161  13.819   0.024   2.702
37151W        W79162   2.659   1.174   3.312
37152W        W79163  24.829  16.104  11.812
37153W        W79164  24.579  13.784   0.408
37154W        W79165  18.179  19.204   8.472
37155W        W79166   5.429  10.964   2.498
37156W        W79167   1.049   4.484   8.812
37157W        W79168  18.159  14.514   8.962
37158W        W79169  12.629  20.414  11.172
37159W        W79170  23.569  19.964  11.802
37160W        W79171  12.709   1.354   9.342
37161W        W79172   8.879   7.514   0.678
37162W        W79173   1.669  16.254  10.732
37163W        W79174  22.849  18.564  11.882
37164W        W79175   4.479   2.694   7.832
37165W        W79176  14.939  15.834  15.782
37166W        W79177  18.929  14.044  15.382
37167W        W79178   8.759  23.521  15.762
37168W        W79179   6.639   5.734  10.572
37169W        W79180  18.699  22.311  10.812
37170W        W79181  19.039  10.514   8.632
37171W        W79182  17.609  25.241   1.188
37172W        W79183  14.529   4.884  15.352
37173W        W79184  24.619   2.534   2.712
37174W        W79185  14.209   4.024  15.522
37175W        W79186  23.589  17.744   0.898
37176W        W79187  18.819  19.184   7.212
37177W        W79188   8.399  20.214   2.398
37178W        W79189  21.209  17.884   1.588
37179W        W79190  11.499   0.754   2.802
37180W        W79191   6.109  23.171   8.332
37181W        W79192  13.549  22.751   2.512
37182W        W79193  13.689   0.704   4.432
37183W        W79194  14.649  20.284  14.922
37184W        W79195   0.139  10.574   1.288
37185W        W79196  14.379  25.051   4.232
37186W        W79197  22.689   1.504   2.338
37187W        W79198   2.819  25.581   2.932
37188W        W79199  16.169  24.521   2.582
37189W        W79200   6.949  21.771  10.912
37190W        W79201  19.789   3.074   0.578
37191W        W79202  25.429  24.201   1.128
37192W        W79203  15.799  24.751  10.502
37193W        W79204  24.729  16.044   1.918
37194W        W79205   6.699   6.494   9.572
37195W        W79206  21.789  19.714  11.692
37196W        W79207  19.959  22.531   2.188
37197W        W79208  10.739  24.301   1.588
37198W        W79209  16.749   3.054   9.992
37199W        W79210  20.509  21.591   2.098
37200W        W79211   3.039  10.034   3.712
37201W        W79212  25.399  12.664   9.552
37202W        W79213   8.189  15.454   9.892
37203W        W79214  19.949   4.024   1.398
37204W        W79215   9.249  20.804   0.208
37205W        W79216  11.669  12.514   9.702
37206W        W79217   3.809   6.004   9.842
37207W        W79218  21.149  22.441  11.272
37208W        W79219   8.929  22.251  15.812
37209W        W79220  23.799  13.694  10.002
37210W        W79221  17.729   2.074   8.962
37211W        W79222  11.189  14.734  14.162
37212W        W79223   2.189  18.844   0.138
37213W        W79224  18.399  21.501   1.678
37214W        W79225   7.609  24.941  14.892
37215W        W79226   6.879  23.511   3.842
37216W        W79227   7.869  20.914   3.332
37217W        W79228  12.309  12.214   2.742
37218W        W79229  12.999  19.344   3.552
37219W        W79230  13.029   8.144   2.642
37220W        W79231  10.279   1.714   8.982
37221W        W79232   2.029  17.024   3.852
37222W        W79233  20.299  16.124   9.322
37223W        W79234   5.969  15.864  15.862
37224W        W79235  15.349   6.324  15.482
37225W        W79236  23.929   2.254  10.672
37226W        W79237   9.619  17.684   3.502
37227W        W79238  23.809  24.911   8.462
37228W        W79239   7.949  16.564   4.662
37229W        W79240  11.089   9.744   8.812
37230W        W79241  17.819   0.304   9.152
37231W        W79242  22.779  12.344   2.802
37232W        W79243   1.609   6.614  10.232
37233W        W79244   6.399  20.394   2.742
37234W        W79245   8.579  13.874   3.352
37235W        W79246  13.629  23.791   1.368
37236W        W79247  24.669   4.554   6.772
37237W        W79248  17.599  10.874  10.952
37238W        W79249   6.039   6.774  15.252
37239W        W79250   6.309  22.091   1.668
37240W        W79251   4.099  19.764   8.652
37241W        W79252   6.509  25.061   0.728
37242W        W79253  25.019   7.584   9.502
37243W        W79254  13.919  16.514  15.212
37244W        W79255  18.409  24.331  11.002
37245W        W79256  20.189   5.154   1.018
37246W        W79257   0.779   2.904   3.092
37247W        W79258  22.969   4.304   9.502
37248W        W79259  11.399   0.344   0.208
37249W        W79260  24.349  14.534   0.408
37250W        W79261  10.209  18.514   3.342
37251W        W79262  25.319   0.684   1.908
37252W        W79263  12.819  10.264   1.238
37253W        W79264  12.859   3.224   0.558
37254W        W79265  17.429   5.584  15.012
37255W        W79266   0.529   4.914   9.942
37256W        W79267  23.969  18.054   3.042
37257W        W79268   2.529   6.154   7.202
37258W        W79269  13.479   4.794  14.382
37259W        W79270   5.489   8.324  15.382
37260W        W79271  20.449   8.654   0.968
37261W        W79272  12.999   3.794   1.608
37262W        W79273  21.749  24.001   8.572
37263W        W79274   7.519  18.674  11.152
37264W        W79275  21.479  16.824  11.052
37265W        W79276   8.109  23.871   0.648
37266W        W79277   8.489  10.504   0.218
37267W        W79278  21.169  13.824   9.462
37268W        W79279  17.449   3.274   1.618
37269W        W79280  16.039  22.741   0.838
37270W        W79281   2.889  23.831   0.828
37271W        W79282  14.209   5.044   9.962
37272W        W79283   7.199  21.004   0.558
37273W        W79284   3.509   7.354   1.888
37274W        W79285  15.939  23.191   7.892
37275W        W79286  18.419  16.554  11.382
37276W        W79287   4.659  24.781   0.838
37277W        W79288  17.229  12.834   4.392
37278W        W79289  21.929  17.884   1.778
37279W        W79290   3.639  12.524   8.292
37280W        W79291  22.429  13.274   2.038
37281W        W79292  24.239  10.544   8.712
37282W        W79293   1.539  23.711  10.652
37283W        W79294   9.309   4.314  15.362
37284W        W79295   6.699  15.544   2.078
37285W        W79296   6.699   2.164  15.662
37286W        W79297  12.389   5.814   0.758
37287W        W79298   5.069  10.894  10.362
37288W        W79299   4.029  18.694   9.412
37289W        W79300   3.229  21.781   8.422
37290W        W79301  20.119  11.304   2.188
37291W        W79302   1.399  24.611   0.668
37292W        W79303   8.229   6.734   8.712
37293W        W79304  16.169  12.554   5.032
37294W        W79305   3.529   6.444   7.132
37295W        W79306   3.879  22.421   3.562
37296W        W79307   3.109  12.794  11.322
37297W        W79308  17.539  19.414   1.418
37298W        W79309   8.409  21.324   2.278
37299W        W79310  14.769   4.624   2.228
37300W        W79311  21.039  15.844  11.142
37301W        W79312  10.639  24.591   8.812
37302W        W79313   9.529  12.024  10.302
37303W        W79314   9.229  20.074  10.172
37304W        W79315  23.419   2.584   1.418
37305W        W79316  17.939  11.684   3.692
37306W        W79317  15.239  23.791   9.062
37307W        W79318   5.609   9.114   2.662
37308W        W79319  19.589  22.541   8.812
37309W        W79320   0.089  13.524   9.442
37310W        W79321  22.489   0.404   7.182
37311W        W79322  12.489   0.384  11.542
37312W        W79323   4.799  17.634   9.512
37313W        W79324  12.459  18.154  10.762
37314W        W79325   5.879  14.174   9.062
37315W        W79326  23.159  21.441  11.072
37316W        W79327  17.819   3.624   2.448
37317W        W79328  16.209  18.864  10.862
37318W        W79329   7.979  19.774   1.498
37319W        W79330   8.639   5.744   3.042
37320W        W79331   1.819   8.494   7.482
37321W        W79332  24.729  22.481  15.872
37322W        W79333   8.949   5.934   0.818
37323W        W79334   1.379   1.144   2.942
37324W        W79335   3.849   6.054   7.192
37325W        W79336  23.019  13.924   9.472
37326W        W79337   4.209   4.944  10.082
37327W        W79338  24.249  21.324   9.382
37328W        W79339   8.759   9.474   8.102
37329W        W79340  20.999  14.704   2.792
37330W        W79341  18.739  10.824   8.292
37331W        W79342   4.269   8.114   6.762
37332W        W79343  10.999  14.634   9.162
37333W        W79344  18.619  14.224   9.752
37334W        W79345  20.329  13.704   3.422
37335W        W79346   8.439  18.664  10.952
37336W        W79347  13.559  19.964  11.462
37337W        W79348   6.949   6.314   1.318
37338W        W79349   3.839  16.134   2.712
37339W        W79350  18.779  13.264  11.532
37340W        W79351   5.269  15.824   8.972
37341W        W79352  20.569  12.214   2.662
37342W        W79353  17.169   9.314   2.572
37343W        W79354   1.089  11.644   8.182
37344W        W79355  21.689   3.724  15.762
37345W        W79356  18.259  10.584   9.142
37346W        W79357  18.479  24.481   1.538
37347W        W79358   6.619  15.834   0.588
37348W        W79359   0.789   4.964   8.582
37349W        W79360  24.549  16.334   1.458
37350W        W79361  12.889  17.324   4.452
37351W        W79362  24.109  12.754   0.978
37352W        W79363   9.539  13.014  11.002
37353W        W79364   3.279   1.944   2.398
37354W        W79365  12.839  25.301   3.922
37355W        W79366  21.859  16.424   9.712
37356W        W79367   4.299  24.491   1.228
37357W        W79368  14.369  23.971   2.178
37358W        W79369   7.009  19.914   4.002
37359W        W79370  13.299   8.134   3.872
37360W        W79371   1.699  22.091   2.562
37361W        W79372  13.379  11.734   3.752
37362W        W79373   3.969  24.441   9.782
37363W        W79374   5.679   1.424   3.132
37364W        W79375   0.439  19.624   3.202
37365W        W79376   2.109   9.404   9.662
37366W        W79377  21.409  16.624   4.172
37367W        W79378   6.659   7.364  10.152
37368W        W79379  10.259  12.644   1.378
37369W        W79380   1.059  10.084  14.792
37370W        W79381  10.459  22.671   2.288
37371W        W79382   3.989  21.164  10.032
37372W        W79383   1.659  19.994   2.228
37373W        W79384  25.209  13.994   2.218
37374W        W79385  19.469  21.681   8.932
37375W        W79386  25.439   9.824   1.928
37376W        W79387  15.979  23.701   1.978
37377W        W79388  14.329   7.014   3.422
37378W        W79389   8.279  12.214  14.412
37379W        W79390  13.729  17.804   3.242
37380W        W79391  13.289  22.041   8.142
37381W        W79392  25.139   1.884   1.138
37382W        W79393  12.699  22.961   9.052
37383W        W79394  24.579  25.521   8.772
37384W        W79395  12.389  14.584  10.312
37385W        W79396  18.859   7.654  10.072
37386W        W79397  24.439   2.354   0.648
37387W        W79398  23.869   4.814  10.482
37388W        W79399   0.719   4.764   2.388
37389W        W79400   7.479   6.774  10.962
37390W        W79401   3.619  13.554   6.832
37391W        W79402  21.529  12.414   1.858
37392W        W79403   5.149  13.924  15.462
37393W        W79404  25.499   1.804   8.862
37394W        W79405  14.399   7.584   8.472
37395W        W79406  10.889   2.024   9.702
37396W        W79407  12.319  20.454   0.008
37397W        W79408  22.169   4.784   2.118
37398W        W79409  19.929  13.714  11.942
37399W        W79410   9.089  14.454   0.238
37400W        W79411  19.599  13.264   8.712
37401W        W79412   3.739  17.934   8.622
37402W        W79413   6.879   7.864   3.922
37403W        W79414  17.159  24.581  11.092
37404W        W79415  22.459  11.214  10.652
37405W        W79416  24.319   0.724   0.358
37406W        W79417  16.229   1.774  11.012
37407W        W79418  20.429  19.194   0.608
37408W        W79419  15.169   8.324   1.198
37409W        W79420  21.689  14.674   2.208
37410W        W79421  21.579   6.024   8.452
37411W        W79422   0.479   9.814   1.348
37412W        W79423  22.309  17.944  10.262
37413W        W79424  22.199  15.574  10.622
37414W        W79425   8.669   3.464   2.582
37415W        W79426   8.269   1.704   9.492
37416W        W79427   7.869   8.714   9.022
37417W        W79428   9.409   3.384   4.352
37418W        W79429  22.139   5.324   7.922
37419W        W79430  16.409  20.884   8.682
37420W        W79431  19.679  22.281   7.392
37421W        W79432  11.049   4.624  14.252
37422W        W79433   0.379  21.401   7.782
37423W        W79434  22.399  21.284   0.348
37424W        W79435  14.759  23.101  11.262
37425W        W79436  10.869  10.114   1.898
37426W        W79437  19.599  17.594  12.122
37427W        W79438   5.309  15.294   9.482
37428W        W79439   0.529  11.254   3.362
37429W        W79440   9.249   0.084  11.432
37430W        W79441  20.189  18.494   8.652
37431W        W79442  15.649   8.754   2.792
37432W        W79443  13.349   4.424   3.742
37433W        W79444   9.989   9.334   3.542
37434W        W79445  10.839  18.324   1.938
37435W        W79446   0.031  17.274   3.252
37436W        W79447  17.539  11.514   7.832
37437W        W79448   7.219  14.874   1.308
37438W        W79449   6.509   1.354  10.382
37439W        W79450   7.239   8.744  15.842
37440W        W79451   3.469  12.954   1.698
37441W        W79452  20.399   2.654   3.932
37442W        W79453   0.629   7.314   8.452
37443W        W79454  16.919   6.384  10.542
37444W        W79455  17.709  22.841   9.272
37445W        W79456  23.599  18.894   3.162
37446W        W79457  24.769  15.434   8.812
37447W        W79458  22.829   1.354   1.018
37448W        W79459   9.779  20.874   3.202
37449W        W79460  19.489  13.934   3.022
37450W        W79461   5.809   0.374  15.852
37451W        W79462  19.719  10.514   4.052
37452W        W79463  19.939   5.894   3.552
37453W        W79464  18.929  12.204   1.758
37454W        W79465   8.819   1.014   4.342
37455W        W79466   6.609  13.824  15.222
37456W        W79467  21.799  19.994   1.308
37457W        W79468  11.029  24.861   2.692
37458W        W79469   6.619  21.861   9.962
37459W        W79470   3.519   7.924   8.842
37460W        W79471  23.079  18.654   0.988
37461W        W79472  13.699  22.451  15.782
37462W        W79473   4.419   4.554  15.682
37463W        W79474   6.469  18.214   1.408
37464W        W79475   8.569  10.904   2.448
37465W        W79476  13.219   3.544   8.462
37466W        W79477  11.999  25.161   4.122
37467W        W79478   2.979   6.674  10.342
37468W        W79479  16.179   5.374   1.338
37469W        W79480  19.159  18.754   0.498
37470W        W79481   1.379  22.401   2.388
37471W        W79482  19.579  24.601   0.218
37472W        W79483   1.399  21.264  11.172
37473W        W79484  25.399  22.261   9.172
37474W        W79485  20.909   5.164   3.042
37475W        W79486   5.859  21.551  15.692
37476W        W79487  22.459   4.214   7.272
37477W        W79488  11.249   7.724   1.278
37478W        W79489  11.469   9.494   4.702
37479W        W79490  14.429   7.174  15.612
37480W        W79491   8.719   6.774   1.818
37481W        W79492  21.039   6.574   2.762
37482W        W79493   6.309   1.274   4.122
37483W        W79494  22.769  14.494   2.902
37484W        W79495  21.129   4.824   8.362
37485W        W79496   1.049  21.324  10.142
37486W        W79497  12.419  11.454   3.822
37487W        W79498   7.769  22.441   3.362
37488W        W79499  11.319  24.741   9.502
37489W        W79500  14.939  24.861   3.512
37490W        W79501  24.009  22.021   8.232
37491W        W79502  18.499  25.011   0.798
37492W        W79503  22.919  19.154   1.748
37493W        W79504  22.559   3.464   9.172
37494W        W79505  24.939   4.924   2.852
37495W        W79506   0.589  12.804  12.092
37496W        W79507  22.499  10.644  11.452
37497W        W79508   3.639  11.624   8.232
37498W        W79509  19.059  21.521  15.572
37499W        W79510   2.709  12.704   3.262
37500W        W79511  23.039  17.734   2.762
37501W        W79512  15.249   0.634   8.342
37502W        W79513  11.579   5.704  10.552
37503W        W79514  14.869   8.444   3.102
37504W        W79515  13.549  10.304  14.242
37505W        W79516   3.029  24.111  10.712
37506W        W79517   3.649  14.644   0.238
37507W        W79518   1.499  17.774   0.708
37508W        W79519  15.359  21.461   8.852
37509W        W79520  12.629  16.394   9.702
37510W        W79521   0.129  19.784   2.812
37511W        W79522   1.919   5.414   7.832
37512W        W79523   3.669  12.324   2.418
37513W        W79524   0.599  18.354   8.852
37514W        W79525   0.489  19.634   8.202
37515W        W79526  17.509  10.464   0.928
37516W        W79527  11.379   6.574  10.412
37517W        W79528   4.459  12.234  15.602
37518W        W79529   6.869  22.471   7.592
37519W        W79530   0.001  25.491   1.218
37520W        W79531  16.499   7.444   9.922
37521W        W79532   9.599   8.004   8.562
37522W        W79533  11.859   8.754   4.022
37523W        W79534  25.229  16.524   9.512
37524W        W79535  12.279  21.841  11.672
37525W        W79536   5.449  14.304   8.452
37526W        W79537   5.319  25.271  11.572
37527W        W79538  11.799   2.384   1.418
37528W        W79539   4.359  15.334   6.962
37529W        W79540  22.809  16.074   2.732
37530W        W79541  13.699  15.014   1.278
37531W        W79542  24.389   5.094   1.528
37532W        W79543   5.959  11.104  10.272
37533W        W79544  16.149  11.814   4.712
37534W        W79545  13.419   6.644   9.992
37535W        W79546  19.199   6.494  10.522
37536W        W79547   8.559   4.294  10.582
37537W        W79548  15.769   0.474  15.572
37538W        W79549   8.939  12.704   1.098
37539W        W79550  16.059  11.354   9.772
37540W        W79551  14.909   0.304   3.822
37541W        W79552  13.299   8.894   1.708
37542W        W79553  24.519   9.614  10.632
37543W        W79554   9.599   9.634  14.422
37544W        W79555  24.589  17.084   9.032
37545W        W79556  21.819  25.471   2.512
37546W        W79557  13.669  18.894   0.758
37547W        W79558  21.599  10.164   7.132
37548W        W79559  15.469  16.344   3.402
37549W        W79560  21.499  18.704   0.588
37550W        W79561  23.699  16.834   0.928
37551W        W79562  17.539  15.774  12.202
37552W        W79563  19.079   4.954   9.042
37553W        W79564  12.279  20.124   1.268
37554W        W79565  25.529   3.964  10.942
37555W        W79566  17.709   2.114   9.592
37556W        W79567  16.109  22.131   8.722
37557W        W79568  24.479   4.384  10.222
37558W        W79569  21.709   9.724   1.388
37559W        W79570   1.059   2.724   1.358
37560W        W79571   9.369  12.784  15.022
37561W        W79572   8.009   5.384  15.292
37562W        W79573  19.449  12.404   1.128
37563W        W79574   0.279   5.384   0.038
37564W        W79575   9.889  24.811   2.682
37565W        W79576  23.649   5.534   1.458
37566W        W79577   8.899   9.784   9.322
37567W        W79578   1.139   8.414   7.152
37568W        W79579  11.019  15.234   9.022
37569W        W79580  23.299   6.894   9.742
37570W        W79581  11.369  21.144   9.072
37571W        W79582  19.479   0.254   0.968
37572W        W79583   7.749   4.154   1.828
37573W        W79584   5.229   8.744   2.592
37574W        W79585  16.159   2.784  10.232
37575W        W79586   7.099  13.934   8.232
37576W        W79587   4.539  17.684   1.498
37577W        W79588  19.649  19.474  10.832
37578W        W79589  18.819   3.824   8.152
37579W        W79590  11.789  17.314  10.382
37580W        W79591  18.809   2.364   7.792
37581W        W79592  21.509  12.254   0.768
37582W        W79593  16.719  25.381  11.872
37583W        W79594  23.379   2.764   7.122
37584W        W79595  22.119  19.854   2.552
37585W        W79596  25.539   8.544  15.522
37586W        W79597  10.969   5.144  14.322
37587W        W79598  18.269   3.284   1.188
37588W        W79599   6.699  19.674   8.002
37589W        W79600   9.489   1.764  10.602
37590W        W79601   2.689   3.934   0.878
37591W        W79602  14.889  24.981  11.982
37592W        W79603  20.579  14.334   0.848
37593W        W79604   4.039  23.911   1.448
37594W        W79605  22.039   3.624  10.142
37595W        W79606   3.719  11.994   0.888
37596W        W79607  25.149  14.614   2.962
37597W        W79608   2.119   6.814  11.372
37598W        W79609  10.809  17.264   1.888
37599W        W79610   9.779  18.664  14.642
37600W        W79611   7.139   9.584   7.992
37601W        W79612  20.769  18.744   2.692
37602W        W79613   0.949   8.244   1.918
37603W        W79614  24.299  16.394   1.908
37604W        W79615  11.789   1.054   4.052
37605W        W79616  17.129  20.794  11.032
37606W        W79617   1.689  16.284   3.572
37607W        W79618  25.099  19.164   3.332
37608W        W79619  19.819   8.694   2.098
37609W        W79620  13.259  18.984   4.482
37610W        W79621   6.589  22.531   0.438
37611W        W79622  22.679   8.514   7.212
37612W        W79623  25.149   4.784   1.518
37613W        W79624  23.489  23.831   2.208
37614W        W79625   9.259   5.034   0.688
37615W        W79626  18.979  23.961  12.182
37616W        W79627  15.589   6.324   4.602
37617W        W79628   7.509   8.574   0.438
37618W        W79629  12.399   6.614   3.502
37619W        W79630   8.419   3.234   9.332
37620W        W79631  18.659   5.124   4.192
37621W        W79632   6.649  17.424  11.142
37622W        W79633   0.989  21.174   0.048
37623W        W79634   2.499  23.751   1.128
37624W        W79635   7.479  16.624   9.252
37625W        W79636   3.159   7.594   0.558
37626W        W79637   0.869  12.134   8.052
37627W        W79638   0.129  13.314   7.852
37628W        W79639   6.419   0.534  10.632
37629W        W79640  15.149  24.131   8.642
37630W        W79641  12.889  16.814   9.702
37631W        W79642  22.809  13.944  12.372
37632W        W79643   1.429  24.231   3.432
37633W        W79644  17.439  15.934   0.978
37634W        W79645   0.839   3.764   0.908
37635W        W79646  18.479   5.304   9.332
37636W        W79647   9.869   0.114   1.278
37637W        W79648   4.769  16.564   9.452
37638W        W79649   1.179  18.284   9.472
37639W        W79650   9.219   2.294  10.692
37640W        W79651   7.459  16.084   9.112
37641W        W79652   9.969   7.034  15.672
37642W        W79653  18.849  15.184  10.352
37643W        W79654   5.769  22.951  11.232
37644W        W79655   6.789  13.654   3.002
37645W        W79656  21.879   6.434   3.802
37646W        W79657   2.549  23.321  10.542
37647W        W79658   1.429  11.504   2.872
37648W        W79659  19.879  10.514   8.532
37649W        W79660   2.979   7.184   2.388
37650W        W79661  15.249  25.441   8.402
37651W        W79662  13.889   8.894   0.158
37652W        W79663  13.989   3.554   2.982
37653W        W79664  19.269   8.164  10.742
37654W        W79665  10.849   9.294   8.972
37655W        W79666   3.239  10.344   1.478
37656W        W79667  21.579  10.754   8.842
37657W        W79668  23.089  20.314   8.442
37658W        W79669  23.359  16.664  12.032
37659W        W79670  12.219  16.914   2.418
37660W        W79671  15.359  25.581  11.182
37661W        W79672   3.269  17.744  11.362
37662W        W79673  14.899   4.344   0.178
37663W        W79674   6.979   8.394   2.178
37664W        W79675  12.459   9.104   3.102
37665W        W79676   0.349   7.414   0.558
37666W        W79677   0.909   7.374   6.372
37667W        W79678   3.059  14.834   1.898
37668W        W79679  20.179  24.811   1.858
37669W        W79680   9.609   5.334  15.162
37670W        W79681   1.229   5.504   1.198
37671W        W79682  13.699   1.194   7.912
37672W        W79683   8.349   2.694  10.652
37673W        W79684  10.479  24.851   3.792
37674W        W79685  16.829   7.524   9.162
37675W        W79686   0.909   9.074   1.748
37676W        W79687   2.579  18.514   8.662
37677W        W79688  16.629  10.964   2.358
37678W        W79689   3.679  11.064  10.822
37679W        W79690   3.809  15.324   8.502
37680W        W79691  18.579   3.134  10.922
37681W        W79692  23.979   0.194   8.392
37682W        W79693  11.429  16.194   4.672
37683W        W79694  17.939  23.531  10.532
37684W        W79695   7.889  17.754  14.922
37685W        W79696  22.159  15.004   8.642
37686W        W79697   3.289   8.494  15.442
37687W        W79698  19.569   6.814   0.328
37688W        W79699   8.039  22.161  10.242
37689W        W79700   9.599  24.081   8.832
37690W        W79701   1.939  21.044   3.672
37691W        W79702  10.649  20.934   0.618
37692W        W79703  25.429  23.181   3.352
37693W        W79704   1.299   5.444   1.708
37694W        W79705   4.389   6.574  10.602
37695W        W79706  24.319   9.484   1.278
37696W        W79707  14.419   4.814  10.752
37697W        W79708  12.709   6.854   3.782
37698W        W79709   1.509  19.124   7.432
37699W        W79710   9.899  13.254   2.008
37700W        W79711  16.009  18.504   9.092
37701W        W79712   1.389  17.084   7.492
37702W        W79713   9.229   2.024   1.018
37703W        W79714  24.719   1.294   9.872
37704W        W79715   4.119  13.544   9.652
37705W        W79716   7.919  10.174   9.192
37706W        W79717  13.659  21.254  10.992
37707W        W79718  14.909  18.034   9.742
37708W        W79719  13.639  15.244  10.012
37709W        W79720  21.049  16.034  10.692
37710W        W79721   9.479   7.194  10.662
37711W        W79722  21.759  24.021  11.212
37712W        W79723  11.699  15.244   1.568
37713W        W79724  11.039  19.954   0.818
37714W        W79725   3.009  21.791  12.172
37715W        W79726  23.819  17.114  11.892
37716W        W79727  12.279   1.624   1.558
37717W        W79728  15.559  23.511   7.852
37718W        W79729  19.939  16.304  11.222
37719W        W79730  10.129  14.034  10.442
37720W        W79731  18.369  19.224   1.438
37721W        W79732  15.489  11.904   8.672
37722W        W79733  23.179  13.504   0.238
37723W        W79734  10.879   7.924   1.058
37724W        W79735  15.159   7.284   3.882
37725W        W79736   3.609   5.154   1.078
37726W        W79737   2.449  14.214   8.792
37727W        W79738  21.549  13.824   1.778
37728W        W79739   9.939  21.501   0.018
37729W        W79740  24.699   6.954   1.498
37730W        W79741   2.569  13.094   8.662
37731W        W79742   3.759   0.174   8.022
37732W        W79743   1.859   9.014  10.062
37733W        W79744  20.309   5.944   3.962
37734W        W79745   4.439  17.944   8.192
37735W        W79746  22.039   8.784  10.992
37736W        W79747  20.919  18.674   1.228
37737W        W79748   4.849  12.414   1.788
37738W        W79749  15.099   7.184  15.372
37739W        W79750   0.849  24.871  15.622
37740W        W79751   7.839  10.714   9.192
37741W        W79752  11.459  18.884  14.552
37742W        W79753  24.409  16.304   8.032
37743W        W79754   2.679  13.844   9.252
37744W        W79755  13.459   3.404   3.792
37745W        W79756   8.319  14.654  10.012
37746W        W79757  17.999  15.344   1.238
37747W        W79758   0.799   1.294  11.232
37748W        W79759  19.729  12.744   8.902
37749W        W79760  20.999  10.774   0.678
37750W        W79761  18.999  16.034  10.872
37751W        W79762   1.249  23.091   0.568
37752W        W79763   9.389  17.254  10.162
37753W        W79764  12.339  12.554  15.292
37754W        W79765   0.889  20.634   0.068
37755W        W79766  12.939  22.371   2.288
37756W        W79767  10.089  21.881   2.742
37757W        W79768  12.409   4.454   2.612
37758W        W79769   0.459  21.371  11.002
37759W        W79770  25.539  25.001   8.892
37760W        W79771  23.549  19.714   3.702
37761W        W79772  13.629  11.804   0.978
37762W        W79773   7.449  13.344  14.722
37763W        W79774   9.339  24.871   8.412
37764W        W79775   1.649  17.704   9.722
37765W        W79776  20.439   7.794  10.252
37766W        W79777  24.699  24.931  10.502
37767W        W79778   7.039  23.081   8.062
37768W        W79779  21.009   8.334   8.332
37769W        W79780  12.809   6.944   0.008
37770W        W79781  13.379  22.361   4.312
37771W        W79782  22.699  25.501   3.082
37772W        W79783   5.599  23.771  10.002
37773W        W79784  19.909  17.624  11.632
37774W        W79785   2.079   4.524  10.462
37775W        W79786   5.949  18.784   3.102
37776W        W79787  17.259  21.124   3.492
37777W        W79788   2.059  18.024  10.872
37778W        W79789   8.079  21.481   8.512
37779W        W79790  17.139  20.904   2.772
37780W        W79791   3.899  24.341   2.782
37781W        W79792  21.629  13.504  11.822
37782W        W79793  18.089  10.104   0.468
37783W        W79794  11.219   8.754  14.622
37784W        W79795  13.309  14.724   1.718
37785W        W79796  18.239   6.944   0.778
37786W        W79797   7.779  13.534   3.722
37787W        W79798   9.709   2.754   8.802
37788W        W79799  21.089  14.304   1.138
37789W        W79800   7.669  13.394   8.732
37790W        W79801  16.919   0.864   8.232
37791W        W79802  14.049  12.264  14.032
37792W        W79803   7.909  23.661   8.942
37793W        W79804  23.529  10.394   8.832
37794W        W79805   3.459  16.594  15.852
37795W        W79806  12.059  19.904   9.642
37796W        W79807   8.629   5.794  10.572
37797W        W79808  20.549   0.734   2.652
37798W        W79809   5.689  17.214   3.512
37799W        W79810   6.149  18.414   0.408
37800W        W79811   0.969   8.924   8.112
37801W        W79812  15.679  12.064   3.592
37802W        W79813   8.779  10.924   3.192
37803W        W79814  25.589   5.674   1.288
37804W        W79815   9.289  24.411  15.742
37805W        W79816   0.669  22.951   2.862
37806W        W79817   6.509  17.054   0.168
37807W        W79818  18.449  20.634   2.862
37808W        W79819  13.129  17.564   4.042
37809W        W79820   1.039  23.001   1.458
37810W        W79821  15.359  11.304   1.608
37811W        W79822  25.379  12.184   1.428
37812W        W79823  25.479   1.644   1.378
37813W        W79824   6.399  21.951   8.742
37814W        W79825  14.899   3.644  14.882
37815W        W79826   8.559  12.664   0.638
37816W        W79827  24.609  23.121  10.592
37817W        W79828  25.169  24.881   9.562
37818W        W79829  16.069  15.034  15.682
37819W        W79830   2.569  24.421  10.902
37820W        W79831  19.859   2.564  10.962
37821W        W79832  14.629   0.594   2.348
37822W        W79833  13.229  22.131   1.908
37823W        W79834   4.179  11.734   8.952
37824W        W79835   1.519  13.544  15.602
37825W        W79836   0.779   2.454   1.678
37826W        W79837  12.699  12.924   0.858
37827W        W79838   0.059   1.814   1.818
37828W        W79839   2.929  13.554   8.212
37829W        W79840  24.139   8.404  11.092
37830W        W79841  25.169  23.891   7.892
37831W        W79842  17.559  12.944  15.352
37832W        W79843   9.839  17.214   9.682
37833W        W79844   8.859   0.934   8.402
37834W        W79845  24.559  22.711   3.502
37835W        W79846   2.589   1.244  10.672
37836W        W79847  20.519   4.404  11.432
37837W        W79848   9.319  16.524   1.108
37838W        W79849   1.959  21.064   7.392
37839W        W79850  16.479   4.884  10.182
37840W        W79851   2.289   6.944   3.142
37841W        W79852   6.209  24.901   9.392
37842W        W79853  21.499  18.404  10.472
37843W        W79854   5.039  19.034  11.092
37844W        W79855   1.779   1.364   1.148
37845W        W79856  17.079  24.331   9.232
37846W        W79857  22.019   7.944  15.222
37847W        W79858   4.399  20.474  15.492
37848W        W79859   3.339  23.191   1.708
37849W        W79860  19.169  14.304   1.768
37850W        W79861  20.309  22.381   1.418
37851W        W79862   3.159  21.721   3.372
37852W        W79863   7.519  23.761   2.448
37853W        W79864  17.269   9.644   1.978
37854W        W79865  17.459  20.784  11.822
37855W        W79866  22.159  10.754   0.578
37856W        W79867   5.699  20.194   2.672
37857W        W79868   4.729  14.054   7.822
37858W        W79869  11.579  17.454   8.612
37859W        W79870  14.899  11.104   0.828
37860W        W79871  12.449  21.471  15.682
37861W        W79872  19.699  24.441  10.642
37862W        W79873  18.849  17.144   1.118
37863W        W79874   4.119   3.164  10.682
37864W        W79875  20.319   4.714  10.782
37865W        W79876  20.149   8.684   4.102
37866W        W79877   7.589  20.104   3.442
37867W        W79878  13.759   0.724   1.888
37868W        W79879  10.359  25.131   1.548
37869W        W79880  25.459  13.134  11.482
37870W        W79881   8.599   2.554   1.508
37871W        W79882  16.789  20.094   0.268
37872W        W79883   7.579  24.781   0.068
37873W        W79884  17.909  19.364   1.878
37874W        W79885   9.949  19.704   9.472
37875W        W79886   2.339  23.691   7.852
37876W        W79887   0.189  20.374   7.242
37877W        W79888  15.529   0.884   4.152
37878W        W79889  14.189  18.344   1.988
37879W        W79890  15.989  12.314   9.942
37880W        W79891  20.609  20.244   8.822
37881W        W79892   7.209   3.994   7.462
37882W        W79893  16.529  23.721  11.362
37883W        W79894  18.789  24.921   8.142
37884W        W79895  21.269   6.424   8.302
37885W        W79896   0.439   7.244   7.152
37886W        W79897   7.959  14.874   2.308
37887W        W79898  19.929   2.754   9.202
37888W        W79899   4.459   7.574  15.562
37889W        W79900   3.109  15.194   3.162
37890W        W79901  21.439  17.724   8.052
37891W        W79902   7.669  18.964   4.072
37892W        W79903  10.149  17.894   9.202
37893W        W79904  15.169   7.114   9.622
37894W        W79905  22.779   6.184  15.262
37895W        W79906  13.779   6.544   9.082
37896W        W79907   7.229  10.844   0.738
37897W        W79908  19.069  18.574  10.662
37898W        W79909  13.629  25.291   1.638
37899W        W79910   7.689   5.374  10.652
37900W        W79911   1.289   5.454   0.398
37901W        W79912   0.989  22.661  10.842
37902W        W79913  18.819   6.334   7.752
37903W        W79914   7.629   5.424   2.158
37904W        W79915  22.119  18.874  11.252
37905W        W79916  19.489  18.644   2.148
37906W        W79917  12.609  22.621   3.202
37907W        W79918  24.609  19.214   9.532
37908W        W79919  13.949   6.944   2.572
37909W        W79920   2.369  21.144   1.378
37910W        W79921  19.199   5.554   2.582
37911W        W79922   7.279  22.871   2.448
37912W        W79923   2.389  19.384   2.542
37913W        W79924  14.159  21.641   2.662
37914W        W79925  13.229   3.894   9.172
37915W        W79926   8.439  15.664   0.888
37916W        W79927  14.539  14.244   9.432
37917W        W79928  18.189  15.874   3.912
37918W        W79929  13.259  11.044   4.932
37919W        W79930   5.929  25.301   0.708
37920W        W79931   7.389   3.954  10.502
37921W        W79932   1.719  16.894   0.248
37922W        W79933   6.819  12.294  10.752
37923W        W79934  12.159  25.291   9.222
37924W        W79935  11.239  23.221   8.972
37925W        W79936   1.789  20.794   2.602
37926W        W79937  18.119  22.441   9.042
37927W        W79938  16.949   3.534   3.452
37928W        W79939   8.459  13.184  15.832
37929W        W79940  25.479   6.944  14.952
37930W        W79941  12.329   7.574   2.048
37931W        W79942  24.579   8.944   9.442
37932W        W79943   4.449   4.744  11.382
37933W        W79944   4.209  12.854  14.832
37934W        W79945   6.679  22.811   2.168
37935W        W79946   7.969   2.454   3.272
37936W        W79947  14.139   4.274   2.662
37937W        W79948  12.179  18.884   4.732
37938W        W79949   2.259   7.284   8.112
37939W        W79950  23.779   8.804  11.032
37940W        W79951  15.819  10.534  10.012
37941W        W79952  13.089  19.784   0.228
37942W        W79953  23.109  25.041  11.032
37943W        W79954   5.149  24.031   9.962
37944W        W79955  17.479  12.024   8.672
37945W        W79956  20.859  20.864   3.812
37946W        W79957  10.709  13.484   2.358
37947W        W79958  16.989  11.834   0.528
37948W        W79959  11.499  24.961   2.028
37949W        W79960  17.599  24.181   2.772
37950W        W79961  10.289  24.681   0.978
37951W        W79962  19.249  15.024   9.902
37952W        W79963   0.689   8.024   7.732
37953W        W79964   1.119  19.344   8.612
37954W        W79965  23.699  15.324   1.548
37955W        W79966  25.589   2.594   2.692
37956W        W79967   2.219  23.911  12.232
37957W        W79968  18.329  16.504   1.828
37958W        W79969   3.419  17.854   2.782
37959W        W79970  13.349   7.504   4.192
37960W        W79971  14.779  14.724   3.802
37961W        W79972   9.069   5.574   4.232
37962W        W79973   1.019  15.934  11.322
37963W        W79974  24.219  13.724   0.798
37964W        W79975  13.219  24.931  10.702
37965W        W79976   5.869  14.254  10.682
37966W        W79977   5.329  10.614   0.538
37967W        W79978   7.679   7.294  10.862
37968W        W79979  20.159   5.154   0.508
37969W        W79980   9.949  21.114  15.462
37970W        W79981   3.209   7.124  10.402
37971W        W79982  11.319  25.421   2.188
37972W        W79983  22.489  13.184   8.902
37973W        W79984  11.389   0.114   9.832
37974W        W79985  22.069  18.884   7.992
37975W        W79986  10.249  17.174  10.462
37976W        W79987   6.199   6.784  10.452
37977W        W79988  16.609  18.644   9.882
37978W        W79989  18.449  10.974   0.908
37979W        W79990   9.189  23.491   9.542
37980W        W79991   7.539  14.304   3.012
37981W        W79992  13.819   6.114  15.532
37982W        W79993   6.219   0.344   7.692
37983W        W79994  13.489  10.694   3.602
37984W        W79995  19.109   1.364   9.402
37985W        W79996  19.709  13.994   0.238
37986W        W79997   7.989   0.074   8.132
37987W        W79998  12.829   1.584   4.812
37988W        W79999  14.579   0.524   2.912
37989W        W80000  14.369   2.284   4.042
37990W        W80001   3.279   3.694  11.432
37991W        W80002   6.989   8.694   8.322
37992W        W80003  11.939  14.944   1.118
37993W        W80004  15.239   5.254   0.968
37994W        W80005   8.869  19.524   4.022
37995W        W80006  16.819  22.151   2.902
37996W        W80007  13.759  18.054   1.878
37997W        W80008   1.769   3.924   9.682
37998W        W80009  12.679  12.884   5.682
37999W        W80010  16.359  18.304   1.888
38000W        W80011  12.859  20.334   0.728
38001W        W80012  16.909  23.781  11.962
38002W        W80013  14.199  22.831   7.812
38003W        W80014  18.609   6.914   0.388
38004W        W80015   1.769  12.734  10.012
38005W        W80016  22.589  15.174   7.722
38006W        W80017   6.719   9.214  14.532
38007W        W80018  15.969  24.361   0.808
38008W        W80019   3.399  20.824   9.582
38009W        W80020  10.839   5.234   0.498
38010W        W80021  20.029  12.404  15.692
38011W        W80022  14.999   4.714   3.512
38012W        W80023   0.859  20.174   0.328
38013W        W80024  11.149  19.004   3.742
38014W        W80025  16.289  20.764   3.292
38015W        W80026   3.829   6.934   0.618
38016W        W80027   2.149  25.121  10.172
38017W        W80028  16.539   2.454  11.262
38018W        W80029  10.569   9.024   2.802
38019W        W80030  12.419  16.624   1.898
38020W        W80031  23.699  22.061   9.492
38021W        W80032   0.021  10.974  15.472
38022W        W80033  16.109  20.734   1.908
38023W        W80034   0.059  19.704   2.028
38024W        W80035  19.209   3.424  15.662
38025W        W80036   5.859  15.594   8.772
38026W        W80037   1.519  23.761   2.138
38027W        W80038   9.489   0.224   9.832
38028W        W80039  11.099   8.634   1.488
38029W        W80040  12.279  22.331   3.932
38030W        W80041  20.199  16.594  10.042
38031W        W80042  15.059  21.234  10.062
38032W        W80043   2.369  23.721   9.172
38033W        W80044   7.149   2.924   2.088
38034W        W80045  19.049  21.521   8.752
38035W        W80046  21.849  13.254   8.642
38036W        W80047  24.519  15.174   8.412
38037W        W80048  14.739  16.884   9.662
38038W        W80049  22.539  15.724   2.468
38039W        W80050  20.789   3.274   2.058
38040W        W80051   6.829  12.984   0.998
38041W        W80052  14.719   3.824   9.852
38042W        W80053  13.799   6.084   8.792
38043W        W80054  13.779   4.744   9.882
38044W        W80055  19.059   4.594   3.202
38045W        W80056   2.179  19.334  10.852
38046W        W80057  13.079  21.024   3.012
38047W        W80058  25.259   6.104   0.928
38048W        W80059   2.759  17.274   2.702
38049W        W80060  14.079  13.824   3.482
38050W        W80061  17.629  19.944  11.942
38051W        W80062  20.109  21.571   9.962
38052W        W80063   8.499   9.074   1.008
38053W        W80064  21.499  13.144   2.408
38054W        W80065   3.219  19.664   0.368
38055W        W80066  14.399  10.404   3.522
38056W        W80067  15.939  12.014  14.282
38057W        W80068  14.529  22.021  10.902
38058W        W80069   9.969  18.364   1.948
38059W        W80070  19.689   9.184  14.792
38060W        W80071  14.989   5.464   1.718
38061W        W80072  21.399  15.624  10.782
38062W        W80073   8.039  21.094   2.532
38063W        W80074   9.979   8.074  14.982
38064W        W80075   8.499   7.174   8.712
38065W        W80076   3.909  20.344  15.532
38066W        W80077  16.179  21.821   0.268
38067W        W80078   9.019  20.754   4.152
38068W        W80079  12.679  19.414   3.952
38069W        W80080   6.139   2.534   3.552
38070W        W80081   0.509  14.904   8.832
38071W        W80082   6.309   8.734   0.488
38072W        W80083  23.579   6.194   8.592
38073W        W80084  10.589  16.704   3.142
38074W        W80085   5.839  12.224   9.322
38075W        W80086  13.459  13.054   4.502
38076W        W80087   3.669  11.444   7.762
38077W        W80088  14.779   0.194   0.608
38078W        W80089  17.379  12.944  10.012
38079W        W80090  18.599  17.104   8.822
38080W        W80091  19.669  18.094  12.302
38081W        W80092   1.729   4.764   3.102
38082W        W80093  19.089  24.701   3.922
38083W        W80094  16.859   8.874  10.872
38084W        W80095  16.159  21.921   1.528
38085W        W80096   2.139   2.614   7.772
38086W        W80097   8.399  23.141  11.692
38087W        W80098  20.809  24.221   4.432
38088W        W80099  17.899  24.431   3.052
38089W        W80100  16.819   7.754   1.608
38090W        W80101  19.559   8.324   0.148
38091W        W80102  16.529  18.454   3.282
38092W        W80103   6.069  12.934  10.542
38093W        W80104  24.809  13.344   0.568
38094W        W80105   6.029  20.864   3.392
38095W        W80106  20.239   3.624   0.598
38096W        W80107   4.319   5.134   2.128
38097W        W80108  23.299  21.771   9.332
38098W        W80109  12.069  17.234  15.442
38099W        W80110   6.929  17.384   3.872
38100W        W80111  10.019   3.824   2.782
38101W        W80112  12.859   7.774  10.532
38102W        W80113   8.829   7.494   0.198
38103W        W80114   8.349   9.894   9.402
38104W        W80115  23.139  10.934   3.332
38105W        W80116  20.709  15.174   9.322
38106W        W80117  25.079  23.581  11.952
38107W        W80118   6.609  18.664  11.302
38108W        W80119  18.249  17.374   3.372
38109W        W80120   1.609   9.644   1.608
38110W        W80121  10.619  12.604   3.302
38111W        W80122   8.759   2.874  15.872
38112W        W80123   7.349  14.714  15.382
38113W        W80124  11.969  11.194  14.642
38114W        W80125  22.569  10.214   9.782
38115W        W80126  15.359   8.514  15.242
38116W        W80127  17.279  25.351   3.602
38117W        W80128  16.739  22.911  10.282
38118W        W80129  20.809  22.281  10.002
38119W        W80130   4.309  22.741   2.478
38120W        W80131  15.389  14.604   9.392
38121W        W80132  17.329   5.004   0.358
38122W        W80133  11.099   3.444   0.478
38123W        W80134  24.589   6.384   8.452
38124W        W80135  25.019  18.764   9.052
38125W        W80136  23.669  19.224   1.028
38126W        W80137  12.999  16.904   2.732
38127W        W80138   6.849  11.364  10.542
38128W        W80139  11.979  14.034   9.682
38129W        W80140   3.709  22.491   2.098
38130W        W80141   6.429   5.464   2.742
38131W        W80142   9.399  12.934   1.338
38132W        W80143  15.649  25.481  10.252
38133W        W80144   8.359   6.134   7.862
38134W        W80145  21.029   8.504   8.802
38135W        W80146  19.509  15.344   4.142
38136W        W80147  14.379  23.371  15.342
38137W        W80148  11.849  15.224   4.672
38138W        W80149   1.909   4.394   8.952
38139W        W80150  25.239   5.384   9.882
38140W        W80151   5.929   4.984   0.318
38141W        W80152  11.379   0.994  15.072
38142W        W80153   9.719  23.071   1.068
38143W        W80154   7.109   0.624   1.738
38144W        W80155   3.599   7.044   7.402
38145W        W80156  16.839   5.654   8.522
38146W        W80157   2.169  23.141  10.902
38147W        W80158   0.339   8.824   7.892
38148W        W80159   4.419  13.454   0.048
38149W        W80160  12.009  15.744  10.572
38150W        W80161  15.589   1.984   1.048
38151W        W80162  20.879  16.814   8.902
38152W        W80163  22.839   0.964   3.452
38153W        W80164  19.089   3.924  11.172
38154W        W80165  16.829   2.434   1.458
38155W        W80166  16.479  17.054  11.142
38156W        W80167   6.899   0.044   3.922
38157W        W80168  21.669  15.644   9.352
38158W        W80169  20.079   0.224   1.668
38159W        W80170   0.839  16.914   9.972
38160W        W80171   8.499  15.364   3.012
38161W        W80172   2.059  20.354   1.948
38162W        W80173  18.129  23.411   2.078
38163W        W80174  17.099  11.634  10.232
38164W        W80175   0.469   4.714   9.482
38165W        W80176  10.489   6.754   9.932
38166W        W80177  13.339   7.744   1.788
38167W        W80178  12.789  23.921   2.832
38168W        W80179   1.099   8.134   0.928
38169W        W80180   5.869  23.161   8.782
38170W        W80181  21.929  23.071  10.122
38171W        W80182  12.529  17.054   0.748
38172W        W80183  12.489  25.301   2.842
38173W        W80184   8.639   2.524   3.462
38174W        W80185  20.219  10.944   2.532
38175W        W80186  14.839  21.501  11.522
38176W        W80187   4.729  16.074   9.612
38177W        W80188   9.669   6.314   2.028
38178W        W80189   5.249  22.871  11.352
38179W        W80190  20.729   3.404  11.742
38180W        W80191  13.669   2.804   9.622
38181W        W80192  10.169  16.164   9.592
38182W        W80193   5.129  25.411  15.542
38183W        W80194  14.819   6.074   3.852
38184W        W80195  21.639   8.104   9.182
38185W        W80196  10.539  24.661  15.722
38186W        W80197   2.149  24.531   9.722
38187W        W80198  10.679   0.874   0.518
38188W        W80199   0.569  10.384   1.008
38189W        W80200  15.519   5.604   0.648
38190W        W80201  22.049   4.724   9.602
38191W        W80202   3.689  19.134   2.288
38192W        W80203   7.199   5.084   1.418
38193W        W80204  21.199  21.631   2.972
38194W        W80205   2.319  19.924  11.652
38195W        W80206  17.529   7.194   1.448
38196W        W80207   0.829  18.004   2.168
38197W        W80208  19.759  17.274   1.388
38198W        W80209  15.339   7.734  14.592
38199W        W80210  22.649   4.514   8.912
38200W        W80211  22.449   3.834  15.162
38201W        W80212   0.209  10.684   2.348
38202W        W80213   5.549  18.514  15.452
38203W        W80214  15.559  20.144   1.568
38204W        W80215  13.159   2.124   2.168
38205W        W80216  16.819  22.861   6.962
38206W        W80217  14.449  20.274   0.748
38207W        W80218   4.099   5.964   2.562
38208W        W80219   1.759  19.154  11.782
38209W        W80220   8.929   0.464  14.352
38210W        W80221   6.189  16.634  10.762
38211W        W80222   2.899  16.774   1.158
38212W        W80223   4.839  23.301   8.902
38213W        W80224   6.089  18.634  10.132
38214W        W80225   3.109   9.354   1.768
38215W        W80226  12.629   2.284   9.662
38216W        W80227   5.809  21.034   1.618
38217W        W80228   7.929  19.904   3.092
38218W        W80229  14.319   3.984   9.532
38219W        W80230  17.869   4.144   2.602
38220W        W80231  10.599  15.624   2.348
38221W        W80232   4.379  24.111   9.662
38222W        W80233  10.609  25.111   2.542
38223W        W80234  19.589  10.154   7.432
38224W        W80235  11.789  21.671   0.898
38225W        W80236  10.029  20.194  15.402
38226W        W80237  19.879   5.624  11.782
38227W        W80238  23.279  20.594  10.602
38228W        W80239  17.509  20.454   8.842
38229W        W80240   9.699   4.634   9.262
38230W        W80241  16.409  10.364  15.402
38231W        W80242   6.849  18.444   4.662
38232W        W80243  22.799   8.214   1.398
38233W        W80244   0.459   9.054   8.342
38234W        W80245  19.919   4.994   1.418
38235W        W80246   1.499  23.101   3.702
38236W        W80247  17.959  14.804  15.852
38237W        W80248   8.329  25.571   3.182
38238W        W80249  22.799  12.314  10.482
38239W        W80250  21.299  15.374   8.862
38240W        W80251   4.419  12.334   8.282
38241W        W80252  20.389   7.254   0.828
38242W        W80253  15.319  11.964   2.732
38243W        W80254   3.309  25.051  10.122
38244W        W80255   3.179   5.284   0.878
38245W        W80256   0.439  10.724  11.512
38246W        W80257   2.719  10.214  10.502
38247W        W80258  11.759  16.054  10.812
38248W        W80259  12.339   2.594   1.068
38249W        W80260  25.369  24.631   8.412
38250W        W80261  20.599  18.264   8.932
38251W        W80262  14.649  10.784   3.892
38252W        W80263  14.869  14.544  15.402
38253W        W80264  14.209  17.464   0.108
38254W        W80265   5.259  13.774   0.218
38255W        W80266  21.409   1.724  10.732
38256W        W80267   5.269   6.084   7.102
38257W        W80268  24.039   6.024   0.118
38258W        W80269  19.579  20.864   8.752
38259W        W80270  11.939   4.224   8.992
38260W        W80271   8.919  11.624   9.732
38261W        W80272  18.479   0.734  10.062
38262W        W80273  25.209  12.124   8.942
38263W        W80274  11.259  20.294   9.682
38264W        W80275  12.149  14.564   0.808
38265W        W80276  24.359  11.974   2.782
38266W        W80277  18.489  22.071   0.758
38267W        W80278  12.819   8.364  10.002
38268W        W80279  19.689  16.854   9.132
38269W        W80280  14.289  11.514  15.432
38270W        W80281   0.359   3.014   2.752
38271W        W80282   3.289   7.444   6.592
38272W        W80283   0.229  24.031   0.808
38273W        W80284  19.549   0.144   8.372
38274W        W80285  14.779  24.741  15.072
38275W        W80286   0.649   6.174   0.348
38276W        W80287  21.219  15.584   9.852
38277W        W80288   8.219   7.754   8.532
38278W        W80289  25.469  23.541  10.722
38279W        W80290   8.069  11.734   0.438
38280W        W80291  12.479   4.644   3.082
38281W        W80292   5.619  13.954   1.518
38282W        W80293  24.469  23.131   7.732
38283W        W80294  13.299   8.334  14.842
38284W        W80295  13.019  15.484  15.292
38285W        W80296  17.769  11.004   2.438
38286W        W80297  13.129   2.564   8.632
38287W        W80298  17.319  12.944   2.358
38288W        W80299  24.179  14.294   8.892
38289W        W80300   8.439   5.624   7.842
38290W        W80301   5.869  18.234   3.292
38291W        W80302  23.069   8.614   1.538
38292W        W80303  11.809   9.654   9.902
38293W        W80304  25.159   9.794   0.888
38294W        W80305  17.419  17.074   3.872
38295W        W80306   3.439  13.684  10.792
38296W        W80307  18.969   7.414   2.468
38297W        W80308  11.709  17.444  10.942
38298W        W80309   5.539   8.654   2.208
38299W        W80310   3.249  20.424   2.652
38300W        W80311  11.909   9.504   2.408
38301W        W80312   2.109  10.464   1.758
38302W        W80313   8.389   7.924  10.702
38303W        W80314   9.219  11.084   3.102
38304W        W80315  12.979  21.324   8.772
38305W        W80316  10.539   7.274  10.042
38306W        W80317   0.919  10.824   2.478
38307W        W80318   8.369   9.674   0.488
38308W        W80319  17.789  19.514   8.532
38309W        W80320   3.039  15.104   7.902
38310W        W80321  16.149  24.711   1.108
38311W        W80322  22.199   0.774  10.312
38312W        W80323   9.589   2.044   2.318
38313W        W80324  18.499   4.944  11.062
38314W        W80325  11.459   7.424   2.268
38315W        W80326   3.019  11.594   0.488
38316W        W80327  22.239  22.331   9.752
38317W        W80328   4.229   9.324   9.532
38318W        W80329  24.029   0.624   3.182
38319W        W80330   4.529  22.641  10.702
38320W        W80331   3.999   8.174   3.042
38321W        W80332  15.899   7.984   1.898
38322W        W80333  23.529   2.094  11.992
38323W        W80334  17.509  18.384   1.738
38324W        W80335  16.729  16.154   2.088
38325W        W80336   2.979  19.084  10.572
38326W        W80337  19.629  12.884   8.402
38327W        W80338  10.489  15.324   0.008
38328W        W80339  12.259  18.234  15.472
38329W        W80340  10.519  18.204   3.112
38330W        W80341   0.041   5.704   0.798
38331W        W80342   2.199   3.054  10.342
38332W        W80343  21.599  11.904   3.472
38333W        W80344  13.559   3.284   4.762
38334W        W80345  23.289  23.011   3.432
38335W        W80346  21.889  12.354   2.388
38336W        W80347   1.989  21.254  11.852
38337W        W80348   1.189  20.524   3.062
38338W        W80349  15.449   7.074   3.492
38339W        W80350  23.009   6.264  10.702
38340W        W80351  20.069  18.434   3.052
38341W        W80352  13.089  10.494   2.742
38342W        W80353   1.439  20.994   2.248
38343W        W80354  10.429   9.384   0.198
38344W        W80355  16.539   4.454   0.918
38345W        W80356  12.059  14.624   9.832
38346W        W80357   9.429   8.804   0.098
38347W        W80358  16.309   1.534   0.118
38348W        W80359   8.959  21.811   0.928
38349W        W80360  14.279  23.581   3.892
38350W        W80361  24.649  23.521   3.732
38351W        W80362  15.789  17.764   0.048
38352W        W80363   1.579   6.504   1.588
38353W        W80364   2.489  13.374   7.032
38354W        W80365  12.559   3.134   2.872
38355W        W80366  22.539   2.714   8.112
38356W        W80367  23.369  15.224   8.572
38357W        W80368  12.739  25.491   1.528
38358W        W80369  20.159   5.414   3.442
38359W        W80370  22.809  21.004  11.872
38360W        W80371  23.909  10.374   2.378
38361W        W80372  21.339  21.024  11.622
38362W        W80373   5.539  12.464  11.112
38363W        W80374  25.319   0.474   3.552
38364W        W80375   9.819   4.844   1.958
38365W        W80376   1.659  20.054   1.748
38366W        W80377  25.429   7.434  11.522
38367W        W80378  20.529   0.284   3.022
38368W        W80379  14.929   8.774  15.252
38369W        W80380  11.279   9.204   8.772
38370W        W80381  13.239  17.594   2.348
38371W        W80382   9.839   7.484   2.972
38372W        W80383   2.429   6.784   1.868
38373W        W80384  19.469   4.294   7.462
38374W        W80385  11.829   7.724   2.552
38375W        W80386  19.839  17.204  11.772
38376W        W80387   4.229  16.494   3.432
38377W        W80388  23.599  18.154   0.518
38378W        W80389  18.499  17.424   1.388
38379W        W80390  11.999  19.104   3.622
38380W        W80391   1.179  20.344  11.392
38381W        W80392  11.779  14.054  15.582
38382W        W80393   3.809   4.874   0.708
38383W        W80394   6.769  20.204   8.612
38384W        W80395   7.009  13.254   8.982
38385W        W80396  23.549  11.414   8.752
38386W        W80397  16.809   9.684   1.778
38387W        W80398   1.179  20.184  15.132
38388W        W80399  21.029   4.044   8.092
38389W        W80400  16.319  13.784   2.168
38390W        W80401   3.259  22.451   7.622
38391W        W80402   0.939  12.214   2.198
38392W        W80403  21.209   2.864  15.772
38393W        W80404  21.669  12.454  10.352
38394W        W80405  12.629  13.694   1.338
38395W        W80406   1.379   9.954   9.592
38396W        W80407   7.169   6.384  14.742
38397W        W80408  23.789  18.674  11.062
38398W        W80409  10.279   6.024  10.912
38399W        W80410   1.959   6.824   0.288
38400W        W80411  11.229   2.514   3.792
38401W        W80412  24.289   5.904   0.568
38402W        W80413  15.869  15.034   8.712
38403W        W80414   3.899  17.514   1.998
38404W        W80415   2.139   8.094  10.802
38405W        W80416   8.359   4.204   3.292
38406W        W80417  20.849   7.914   6.962
38407W        W80418  18.269  18.734   8.522
38408W        W80419  22.309   8.204   7.712
38409W        W80420  16.489   4.024  10.532
38410W        W80421   3.579   4.684   1.768
38411W        W80422   5.849   2.294   1.708
38412W        W80423  18.289   9.224   0.038
38413W        W80424  21.489  15.614  11.242
38414W        W80425   2.249   8.294   8.272
38415W        W80426  11.859   2.574   0.908
38416W        W80427  14.109  23.241   9.122
38417W        W80428   0.369   2.254   0.088
38418W        W80429   2.399   5.204   3.212
38419W        W80430  19.689   8.714   2.862
38420W        W80431  19.829   7.364   9.892
38421W        W80432  13.899  15.964   1.528
38422W        W80433  23.159  22.801   0.238
38423W        W80434  11.889  12.514  15.492
38424W        W80435  17.289  16.134   3.322
38425W        W80436   3.779   5.014   9.252
38426W        W80437  12.849  19.834   2.682
38427W        W80438  12.739  20.614  15.582
38428W        W80439   3.509  24.021   3.492
38429W        W80440  10.279   0.474   1.438
38430W        W80441  15.989  20.824   8.472
38431W        W80442  25.479  14.564   9.672
38432W        W80443  11.809   9.084  15.722
38433W        W80444  14.709  13.364   0.808
38434W        W80445  11.129  16.164   9.442
38435W        W80446  21.269   7.134   1.508
38436W        W80447   8.409  10.964  15.072
38437W        W80448   1.399  22.351  10.042
38438W        W80449  20.579  24.361  10.972
38439W        W80450   9.499   6.614   9.392
38440W        W80451   4.059   1.594  11.802
38441W        W80452   9.369  20.924   3.482
38442W        W80453  22.759  18.364   0.688
38443W        W80454  20.759   9.424   7.832
38444W        W80455  24.409  23.981   1.028
38445W        W80456   6.759  19.984  11.052
38446W        W80457  21.849  13.944   9.132
38447W        W80458  10.579  16.064  15.182
38448W        W80459  12.259  25.071   1.918
38449W        W80460  11.269  24.281   3.592
38450W        W80461  21.629   8.574  15.672
38451W        W80462  12.419  13.214   0.058
38452W        W80463  16.709   9.704   8.202
38453W        W80464   7.649   0.404  10.322
38454W        W80465  25.349  22.451   1.788
38455W        W80466   9.289   4.214   8.182
38456W        W80467  14.609  10.074   0.968
38457W        W80468  14.479   6.534   3.232
38458W        W80469   6.229  12.854   1.848
38459W        W80470   2.339  10.444   9.752
38460W        W80471  14.729   3.494   8.812
38461W        W80472  20.749  12.744   2.348
38462W        W80473  19.569  15.504   3.642
38463W        W80474  10.089  15.604  15.682
38464W        W80475  22.249  10.404   1.808
38465W        W80476  11.589  25.181  10.332
38466W        W80477   2.549   0.704  10.192
38467W        W80478   9.709   3.924  14.532
38468W        W80479  21.789   3.804  10.932
38469W        W80480   9.989  13.724   2.088
38470W        W80481  19.709   8.824  10.362
38471W        W80482   8.489  23.131   3.432
38472W        W80483   4.589  20.814   7.382
38473W        W80484   0.509  21.921  11.032
38474W        W80485   2.989  19.834   9.932
38475W        W80486   7.519   8.284   2.158
38476W        W80487  25.509  14.624  15.522
38477W        W80488  15.459  19.054  11.292
38478W        W80489  25.159  15.524   9.542
38479W        W80490  22.859  14.984   1.108
38480W        W80491  24.809  18.494   7.942
38481W        W80492   7.299  21.254   9.862
38482W        W80493  15.249   7.974   0.078
38483W        W80494  20.269  24.381   8.602
38484W        W80495  20.139  10.974  11.442
38485W        W80496  24.719   4.134  14.932
38486W        W80497  24.469  14.734  11.542
38487W        W80498   0.519  16.784  11.452
38488W        W80499   1.869  20.994   3.172
38489W        W80500  22.769   6.474   0.928
38490W        W80501  11.619  11.594  13.642
38491W        W80502   3.929  23.391   2.582
38492W        W80503   6.539   9.504   0.788
38493W        W80504   6.229   9.514   8.412
38494W        W80505  21.679   9.024   3.262
38495W        W80506   3.119  16.214   0.328
38496W        W80507  13.579  14.234  15.182
38497W        W80508  14.699   6.184  14.712
38498W        W80509  10.779   0.684  10.532
38499W        W80510   9.859  19.734   3.852
38500W        W80511   2.089   0.974   1.078
38501W        W80512   8.639  16.794   1.498
38502W        W80513   5.609   9.864   9.082
38503W        W80514   9.509  21.551  15.622
38504W        W80515   4.509  16.314   1.378
38505W        W80516  12.799  24.481   9.092
38506W        W80517   3.859   3.454   1.058
38507W        W80518   1.709   6.194   9.002
38508W        W80519  23.529  23.781   3.082
38509W        W80520  21.729   8.564  10.062
38510W        W80521  12.759   9.414   0.928
38511W        W80522  16.339  19.054   8.662
38512W        W80523  19.559   4.034   1.768
38513W        W80524   5.549  10.754  10.672
38514W        W80525  10.519  18.474   9.852
38515W        W80526   8.239  15.494   8.572
38516W        W80527  15.549  16.414  15.752
38517W        W80528   3.309  13.564   2.058
38518W        W80529  10.859  21.541   8.202
38519W        W80530   2.159  15.004   0.558
38520W        W80531  12.419  10.774   0.048
38521W        W80532  22.789   5.904   8.932
38522W        W80533   8.479   2.334   9.682
38523W        W80534   6.469   2.604   8.812
38524W        W80535   6.569  18.684  10.812
38525W        W80536  18.209  22.301   7.952
38526W        W80537  21.359   0.014   0.048
38527W        W80538  24.919  14.594   9.852
38528W        W80539  10.819  13.184   3.342
38529W        W80540  11.809  10.894  14.252
38530W        W80541  14.519  18.404   1.448
38531W        W80542   5.069  21.344   1.998
38532W        W80543  21.389   7.374   7.402
38533W        W80544   6.449  24.991   1.618
38534W        W80545  11.529  23.131   2.712
38535W        W80546   8.089  11.454  15.392
38536W        W80547  20.909  15.174   2.378
38537W        W80548   2.079  15.544   1.818
38538W        W80549   2.549   0.134   1.338
38539W        W80550  22.489  11.744   8.582
38540W        W80551  18.669   8.764   1.118
38541W        W80552  23.269  19.464  12.082
38542W        W80553  17.809  13.834   4.452
38543W        W80554  16.989   1.804   7.672
38544W        W80555  23.429   4.184   3.142
38545W        W80556   5.429   0.224  11.442
38546W        W80557   9.309   2.094   9.272
38547W        W80558  16.289   1.284  11.302
38548W        W80559  10.599  10.034   2.418
38549W        W80560   8.229  16.194   3.422
38550W        W80561   1.749   3.394   8.912
38551W        W80562  17.099  10.394   9.492
38552W        W80563  22.979  14.224   0.138
38553W        W80564   9.659   2.424   9.242
38554W        W80565  23.499   0.124  12.122
38555W        W80566  18.899  21.441   9.312
38556W        W80567   0.249   2.294   8.142
38557W        W80568  18.659  24.201  11.402
38558W        W80569   6.709  20.344   1.898
38559W        W80570  16.089   4.664  10.462
38560W        W80571   8.759  11.534   8.962
38561W        W80572  20.069  17.154   9.752
38562W        W80573   8.689   0.424   8.222
38563W        W80574   9.139  21.731   9.382
38564W        W80575   6.209  23.601   3.292
38565W        W80576   4.219  16.974   0.358
38566W        W80577  20.519   7.824   0.218
38567W        W80578  14.219  16.554  15.582
38568W        W80579  21.959  23.411   2.802
38569W        W80580  15.729  11.274  14.902
38570W        W80581   8.129   6.544   8.192
38571W        W80582  13.939   3.704   3.462
38572W        W80583  21.179   5.924   0.908
38573W        W80584  17.139   1.904   2.488
38574W        W80585  20.199   8.064  10.662
38575W        W80586  18.849   1.904   2.028
38576W        W80587  25.449   6.104   1.908
38577W        W80588   8.239  16.524   1.238
38578W        W80589   5.929  10.764   1.238
38579W        W80590  15.079  11.634   9.402
38580W        W80591  12.109   4.454   7.512
38581W        W80592  16.249   7.164  11.022
38582W        W80593  21.979  17.754   1.068
38583W        W80594   1.639  14.964   2.882
38584W        W80595  22.749  20.444   8.902
38585W        W80596  24.129  25.531  11.732
38586W        W80597  18.099  16.684   2.338
38587W        W80598   8.279  20.544   3.382
38588W        W80599  19.669  12.794   7.402
38589W        W80600   9.009  18.664   2.992
38590W        W80601  20.919   1.924   2.862
38591W        W80602   3.999  14.764   2.972
38592W        W80603  19.289  18.204   9.022
38593W        W80604   0.059   8.134   8.532
38594W        W80605  25.239  12.564   0.858
38595W        W80606   2.049  25.141   8.902
38596W        W80607  17.359  15.174   1.158
38597W        W80608   4.269  24.191   0.358
38598W        W80609  14.859  12.724   1.498
38599W        W80610   3.319  12.994   0.918
38600W        W80611  18.489  13.424  10.752
38601W        W80612  22.969  18.414  11.332
38602W        W80613  24.449  18.834   0.048
38603W        W80614  19.469   9.594  14.982
38604W        W80615  25.309  22.871   2.068
38605W        W80616  25.399  24.521   2.138
38606W        W80617  18.329  19.544   1.948
38607W        W80618  22.859  20.094   2.018
38608W        W80619   4.679   4.894   8.342
38609W        W80620  18.759  20.664   9.932
38610W        W80621  13.829  18.524   1.698
38611W        W80622  17.539  16.534  11.052
38612W        W80623   3.399  12.384  11.382
38613W        W80624   3.299  16.334   8.992
38614W        W80625   0.209   3.804   2.398
38615W        W80626  24.829  12.534   0.438
38616W        W80627   2.749   2.054   2.248
38617W        W80628  12.029  12.254   0.708
38618W        W80629  11.419   6.954   1.108
38619W        W80630  16.199  23.251  11.452
38620W        W80631  21.609  10.174  10.692
38621W        W80632  18.409  25.091   2.902
38622W        W80633  13.689   0.824  14.852
38623W        W80634   9.799  18.134   3.352
38624W        W80635  17.649  10.954  10.462
38625W        W80636  12.839   3.514   2.662
38626W        W80637   4.529  11.064   1.648
38627W        W80638   5.419  25.391  10.102
38628W        W80639  14.499  20.644   3.532
38629W        W80640   2.979   2.364  15.852
38630W        W80641   2.029  21.561   0.768
38631W        W80642   7.249  10.334   2.552
38632W        W80643  11.739   4.734   7.782
38633W        W80644  18.889  20.614   1.948
38634W        W80645  16.589  18.074  10.602
38635W        W80646   1.959   8.524  10.842
38636W        W80647  13.859  10.324   3.552
38637W        W80648  21.039   1.884   1.718
38638W        W80649   1.539  20.544   8.102
38639W        W80650  15.639  15.524   8.952
38640W        W80651  13.379  12.114   4.182
38641W        W80652  14.229   9.404   9.132
38642W        W80653   7.619  16.494  11.052
38643W        W80654   2.889  12.064   8.122
38644W        W80655   4.769  18.184   9.512
38645W        W80656  18.759  20.244  10.662
38646W        W80657   4.109   0.064   0.348
38647W        W80658   1.769  24.751   9.062
38648W        W80659   5.389   1.474   7.372
38649W        W80660   0.059  11.924   7.742
38650W        W80661  25.269   6.384   9.922
38651W        W80662   8.949  23.501   4.132
38652W        W80663   8.289   1.164   9.492
38653W        W80664  21.949  22.841   0.718
38654W        W80665  14.139  24.341   0.728
38655W        W80666   7.749  10.864   8.222
38656W        W80667  13.909  14.044   5.022
38657W        W80668  17.389  22.861   8.322
38658W        W80669  16.089  10.114   9.232
38659W        W80670   0.279   7.214   8.812
38660W        W80671   5.639   3.224   0.638
38661W        W80672   2.029   4.634   8.452
38662W        W80673  13.269  21.511  10.032
38663W        W80674  21.239  17.784   0.348
38664W        W80675   6.429  17.924   0.318
38665W        W80676   9.459  22.351   7.912
38666W        W80677   1.419   9.314  15.122
38667W        W80678   2.249  12.824   1.548
38668W        W80679  13.849   1.844   3.582
38669W        W80680  10.329  19.944   2.238
38670W        W80681  13.759  23.011   3.122
38671W        W80682  18.549  16.374  10.902
38672W        W80683   4.209  14.924  10.062
38673W        W80684  14.949  20.814   3.202
38674W        W80685  10.309  18.024   5.102
38675W        W80686  13.739   1.224  15.872
38676W        W80687   1.289  10.774   2.138
38677W        W80688  20.399  18.014   9.782
38678W        W80689  13.409   8.884  14.802
38679W        W80690   0.939  23.151  15.512
38680W        W80691   5.059  16.084   3.152
38681W        W80692  23.659   0.284   8.852
38682W        W80693   3.929  16.594  12.132
38683W        W80694  24.019  14.624   0.888
38684W        W80695  23.549  24.161  11.192
38685W        W80696   7.269  12.684   1.928
38686W        W80697   8.229   5.444   3.182
38687W        W80698  14.029  17.164   0.518
38688W        W80699  20.449   9.874  15.722
38689W        W80700   8.799   9.524   8.862
38690W        W80701   0.949  18.784   1.898
38691W        W80702   2.619  15.734   2.562
38692W        W80703   1.759  19.834   2.722
38693W        W80704  17.089   6.124   9.262
38694W        W80705  23.909   4.754  11.782
38695W        W80706   3.409   6.294  10.802
38696W        W80707  10.169  16.564   8.682
38697W        W80708  17.729   5.204  10.712
38698W        W80709   6.099  22.311  11.322
38699W        W80710   2.359   2.954   3.262
38700W        W80711   8.769   4.794   9.382
38701W        W80712  21.829   6.274   1.158
38702W        W80713  18.009   3.514   7.922
38703W        W80714  22.789  10.024  10.482
38704W        W80715  20.519  16.824   8.252
38705W        W80716   7.359  25.561   9.192
38706W        W80717   0.109  14.364   2.942
38707W        W80718   4.699  12.814   2.358
38708W        W80719  16.049   5.674   0.898
38709W        W80720   5.709   8.764   3.122
38710W        W80721  21.939  14.734   1.278
38711W        W80722  14.449  13.454  15.302
38712W        W80723  13.259  10.504   1.968
38713W        W80724   5.349  10.134   3.002
38714W        W80725  23.229   3.464   2.812
38715W        W80726  20.879   1.604  15.482
38716W        W80727   6.399   4.384   1.298
38717W        W80728  10.829   2.614   3.482
38718W        W80729   0.559   8.924   6.402
38719W        W80730   8.639   1.954   9.922
38720W        W80731   8.379  12.154  10.702
38721W        W80732   3.749   0.004   7.522
38722W        W80733  24.679   0.654   9.942
38723W        W80734   4.929  21.981   8.912
38724W        W80735  14.729   2.164  10.972
38725W        W80736  10.599   7.054   1.928
38726W        W80737  24.529   6.074   8.842
38727W        W80738   5.689  12.124   0.818
38728W        W80739  14.489   9.954   1.548
38729W        W80740   7.059   3.734  15.482
38730W        W80741   3.399  21.134   4.132
38731W        W80742  24.379  15.824   1.478
38732W        W80743   9.979  24.501   9.792
38733W        W80744  22.969   8.544  11.982
38734W        W80745   2.839  22.921   1.528
38735W        W80746  11.959  20.264  10.562
38736W        W80747  21.239  17.584  12.132
38737W        W80748  22.629   9.634   3.332
38738W        W80749  16.249   3.584   1.818
38739W        W80750  15.129  24.491   0.718
38740W        W80751   9.959   7.194   2.572
38741W        W80752  19.649  10.684   9.722
38742W        W80753   4.759  22.891  11.182
38743W        W80754  25.509  11.544   8.162
38744W        W80755  20.639  22.711   2.168
38745W        W80756  22.189  10.854   2.158
38746W        W80757   6.089  14.284   2.088
38747W        W80758  13.169   2.914   0.698
38748W        W80759   0.169   0.114  10.422
38749W        W80760  24.249  13.254   2.318
38750W        W80761   5.489  20.304   3.172
38751W        W80762  18.119   2.944   1.508
38752W        W80763   6.289  20.144   2.108
38753W        W80764  24.919  14.264   0.448
38754W        W80765  21.609  11.464   2.098
38755W        W80766  12.879   1.024   9.012
38756W        W80767  13.129   7.604   9.302
38757W        W80768  16.229  16.904   4.302
38758W        W80769   3.329  15.404  10.472
38759W        W80770  17.239  23.851   3.962
38760W        W80771  10.719  23.211   3.562
38761W        W80772  25.239   5.114   9.412
38762W        W80773   8.839   2.104  15.682
38763W        W80774  16.309  17.614   3.082
38764W        W80775  25.589  19.914   3.302
38765W        W80776   1.589  12.714   9.502
38766W        W80777  10.719  14.324   0.958
38767W        W80778  11.739  19.934   2.872
38768W        W80779  11.399   0.384   1.478
38769W        W80780  17.169   8.514  15.352
38770W        W80781  18.709  22.461   2.702
38771W        W80782  24.869  20.154  12.352
38772W        W80783   6.169   0.964  10.522
38773W        W80784   2.869  19.374   8.522
38774W        W80785  18.819  11.354  15.442
38775W        W80786  14.779  17.824  10.622
38776W        W80787  10.959   7.454   0.998
38777W        W80788  13.909   8.874  14.062
38778W        W80789  15.649   6.514   4.162
38779W        W80790  20.889  21.901   9.592
38780W        W80791   3.459  16.974  11.672
38781W        W80792  20.119  24.561   7.442
38782W        W80793   1.379  13.824   0.158
38783W        W80794   9.199   9.994   0.258
38784W        W80795   2.359   7.364   0.818
38785W        W80796   8.069  11.754   8.642
38786W        W80797  14.509  17.144   9.292
38787W        W80798  22.699   8.974   0.448
38788W        W80799   1.499   2.304   3.452
38789W        W80800  23.299   6.384   2.742
38790W        W80801  25.169   2.624   8.642
38791W        W80802   4.419  13.934   9.832
38792W        W80803  12.109  18.094   9.822
38793W        W80804   1.009  17.674   1.778
38794W        W80805   7.919   4.504   2.932
38795W        W80806   5.959  10.334  10.302
38796W        W80807  12.949  21.771  10.992
38797W        W80808  24.399  15.754  10.312
38798W        W80809  13.139  13.834  14.632
38799W        W80810   4.849   4.284  14.422
38800W        W80811   0.409  23.121   8.012
38801W        W80812  13.669  23.311  15.872
38802W        W80813  17.619  22.031   1.418
38803W        W80814   5.059  18.834  15.052
38804W        W80815  24.359  14.174   9.452
38805W        W80816  12.439   4.774  15.722
38806W        W80817   4.919   6.134   8.032
38807W        W80818  14.269  19.674   1.058
38808W        W80819   0.139  20.594   1.758
38809W        W80820   2.709  18.324   1.188
38810W        W80821  14.279  14.204   1.008
38811W        W80822  14.029   6.244   3.202
38812W        W80823   0.389  19.474   9.842
38813W        W80824  10.459  10.334   8.362
38814W        W80825  19.229   0.324  11.272
38815W        W80826  11.559   9.614   1.548
38816W        W80827   7.819   5.204   3.562
38817W        W80828  15.889   2.034  15.552
38818W        W80829  15.719  14.364   0.148
38819W        W80830  17.329  22.391   9.232
38820W        W80831  22.769   3.014   0.108
38821W        W80832   6.559  19.434   9.802
38822W        W80833   2.789  11.294   9.462
38823W        W80834   3.439  12.054   8.072
38824W        W80835  22.899   5.234   9.712
38825W        W80836  14.899  24.181   2.188
38826W        W80837  20.789  12.914  15.752
38827W        W80838  24.369  10.054   8.942
38828W        W80839  21.409  17.774   2.028
38829W        W80840   1.969  13.284  14.762
38830W        W80841  12.799  24.811   3.732
38831W        W80842  22.759   7.804   6.752
38832W        W80843  16.609  14.164   4.312
38833W        W80844  20.369  18.044   2.278
38834W        W80845   0.059   8.284  11.802
38835W        W80846  24.669  15.104   9.212
38836W        W80847  18.679   5.084  10.512
38837W        W80848  19.769  10.974  15.872
38838W        W80849  12.389   1.524  15.812
38839W        W80850   5.819  12.024  10.872
38840W        W80851  19.549  12.864  11.512
38841W        W80852  24.619   8.054   9.022
38842W        W80853  11.499  10.874  15.872
38843W        W80854  12.539  14.874   2.128
38844W        W80855   6.179  25.051  11.302
38845W        W80856  22.449   0.354   3.232
38846W        W80857   4.289  19.074   9.222
38847W        W80858  22.299  25.521  10.182
38848W        W80859  14.729   6.184  10.812
38849W        W80860  13.039  23.631   1.198
38850W        W80861  12.129  10.024   0.668
38851W        W80862  14.269   3.884  10.772
38852W        W80863  15.569   0.984   9.242
38853W        W80864   9.699   6.274   4.182
38854W        W80865   8.839   2.534  15.222
38855W        W80866  20.869  21.531  11.262
38856W        W80867   7.769  25.561   9.442
38857W        W80868  11.949  15.704   1.658
38858W        W80869   9.939   6.544   3.412
38859W        W80870  21.269  10.434   8.632
38860W        W80871  15.439   5.834  15.242
38861W        W80872  18.099  20.184   9.602
38862W        W80873  15.449  10.014   1.618
38863W        W80874   4.659   4.704   3.362
38864W        W80875  12.179  18.494  14.992
38865W        W80876  22.259   7.654   7.922
38866W        W80877   2.239  17.444   1.158
38867W        W80878  15.899   3.094   1.938
38868W        W80879   1.999   5.534   3.332
38869W        W80880  15.939  13.364   2.318
38870W        W80881   3.409  10.744  15.672
38871W        W80882  20.299  16.844   2.308
38872W        W80883  23.479  13.374  10.792
38873W        W80884  15.029  10.194  14.172
38874W        W80885   2.289   7.264   0.278
38875W        W80886   4.079  11.474   8.442
38876W        W80887  12.369  16.004   4.062
38877W        W80888  19.769  23.881   7.882
38878W        W80889  23.719  21.044   0.988
38879W        W80890  12.389   5.314   0.558
38880W        W80891  20.429  23.281   2.662
38881W        W80892  21.899   6.164   8.832
38882W        W80893   8.079  24.711   3.252
38883W        W80894   5.849  19.974  10.652
38884W        W80895  15.479  15.034   8.982
38885W        W80896   6.069   0.754   2.632
38886W        W80897  25.119   0.524   8.932
38887W        W80898   2.379   0.074  15.762
38888W        W80899  19.339   5.714   1.338
38889W        W80900   1.639   0.794  10.082
38890W        W80901   7.209  23.651   8.662
38891W        W80902  15.039  20.184   8.062
38892W        W80903  16.449   9.084   9.002
38893W        W80904   3.749   4.794  10.852
38894W        W80905  21.389   9.414   1.738
38895W        W80906  24.269   2.544  15.622
38896W        W80907  12.369  22.171   2.328
38897W        W80908  25.589   7.934   1.548
38898W        W80909   3.119  19.854   3.212
38899W        W80910   5.109  10.834   9.842
38900W        W80911  12.539  12.654  10.762
38901W        W80912  15.109  17.484   0.508
38902W        W80913  17.299   7.864  10.682
38903W        W80914   6.349   1.804  15.542
38904W        W80915  20.379   3.084   8.432
38905W        W80916  19.069  17.704  10.142
38906W        W80917  22.599   4.944  11.242
38907W        W80918   7.039   6.004   3.072
38908W        W80919   6.859  16.634   2.028
38909W        W80920   8.579   5.484   0.198
38910W        W80921   8.329   1.994  15.722
38911W        W80922  17.389  12.454  14.352
38912W        W80923  12.049  14.674   3.772
38913W        W80924  17.569  11.584   2.922
38914W        W80925   1.389   9.434  10.592
38915W        W80926  17.989   3.214   8.272
38916W        W80927  15.949  17.294  15.712
38917W        W80928   3.669  22.441   3.102
38918W        W80929  10.599  23.901   1.878
38919W        W80930  22.809  14.464   1.168
38920W        W80931   1.099  13.994   8.572
38921W        W80932   7.139  15.854   2.468
38922W        W80933   4.039   9.154  15.792
38923W        W80934   8.929  23.141   3.762
38924W        W80935  12.019  24.481  10.842
38925W        W80936  16.119   6.084   2.058
38926W        W80937   5.769  24.701   7.872
38927W        W80938   2.309  12.024   9.422
38928W        W80939   7.439  24.881   0.818
38929W        W80940   5.769  23.221   9.282
38930W        W80941   4.539  17.204  11.182
38931W        W80942   1.729   5.704   2.128
38932W        W80943  15.589  25.181   1.848
38933W        W80944  24.829   0.604   1.668
38934W        W80945   8.529  21.004   9.752
38935W        W80946   2.899  13.534   1.678
38936W        W80947  18.139   8.834   1.898
38937W        W80948  11.689  18.114   1.948
38938W        W80949  18.539  21.174   3.672
38939W        W80950  17.039   7.184   0.228
38940W        W80951  20.579  10.624   2.358
38941W        W80952  10.239  21.701   1.818
38942W        W80953  12.299   9.874   2.962
38943W        W80954   0.789  25.061   0.968
38944W        W80955  17.039  15.584   4.332
38945W        W80956   0.339  22.061   9.982
38946W        W80957  13.099  12.774   3.322
38947W        W80958   9.169   4.644  10.672
38948W        W80959   1.139  11.854   9.652
38949W        W80960  18.949  23.511  12.582
38950W        W80961   6.169   6.254   3.422
38951W        W80962   6.719   8.464   8.942
38952W        W80963   0.469   3.764   8.512
38953W        W80964  13.189  10.674   0.928
38954W        W80965   1.969  11.254  15.382
38955W        W80966   0.809   0.074  10.572
38956W        W80967   0.079   2.014  10.712
38957W        W80968  15.299  18.514  15.672
38958W        W80969   4.759   9.134   8.302
38959W        W80970   0.349  15.194   3.072
38960W        W80971   8.299  10.794   3.412
38961W        W80972  23.009  19.644  12.672
38962W        W80973  11.399   8.474  10.442
38963W        W80974   1.479  19.994   3.102
38964W        W80975   3.109  15.654   7.972
38965W        W80976   8.459  11.044   0.398
38966W        W80977   7.599   5.614   0.958
38967W        W80978   1.799   9.734  10.862
38968W        W80979   1.669  15.124   1.838
38969W        W80980  19.989   7.214   3.492
38970W        W80981  12.689  14.794   4.022
38971W        W80982   4.829  19.004   9.332
38972W        W80983   3.049   9.664   7.842
38973W        W80984  21.979   2.714  10.982
38974W        W80985   8.999  24.891   3.702
38975W        W80986  12.389   4.174   0.238
38976W        W80987  16.509  20.414  10.522
38977W        W80988  12.099   7.944   0.278
38978W        W80989  23.039  13.164   3.212
38979W        W80990  10.149  14.024   2.532
38980W        W80991  12.489   2.614  14.912
38981W        W80992   9.029   3.044  15.452
38982W        W80993  12.259  13.644   0.408
38983W        W80994   2.359  17.044   1.568
38984W        W80995  17.879  22.731   8.052
38985W        W80996   5.899   3.554   0.998
38986W        W80997  21.729   6.204   7.992
38987W        W80998  14.219   8.154   1.188
38988W        W80999   5.139   9.074  10.612
38989W        W81000   6.709   7.814   2.178
38990W        W81001  10.489   5.474   8.562
38991W        W81002  16.549  25.301   9.282
38992W        W81003  18.559  12.864   3.842
38993W        W81004  15.049  25.401   2.532
38994W        W81005  13.819  18.584   4.472
38995W        W81006  23.969  12.324   9.272
38996W        W81007  22.799  10.764   1.298
38997W        W81008  22.429   4.364   9.342
38998W        W81009  20.939  19.204   4.012
38999W        W81010   8.219  25.451   3.642
39000W        W81011   2.549   6.854   0.178
39001W        W81012   8.759   3.084  10.112
39002W        W81013  13.179  12.814   1.578
39003W        W81014  11.369  16.904   1.318
39004W        W81015   5.839  17.074   3.062
39005W        W81016  20.059  24.821   3.582
39006W        W81017  15.039   2.804   3.502
39007W        W81018   2.649  22.111   9.372
39008W        W81019  20.779  13.434   0.798
39009W        W81020  24.479   3.644   8.522
39010W        W81021  16.999  12.974   0.288
39011W        W81022  22.669   6.024   0.278
39012W        W81023  20.239  21.124   0.458
39013W        W81024   7.189  16.374   9.572
39014W        W81025   2.679  24.451   7.942
39015W        W81026  25.109   1.774   7.852
39016W        W81027   2.389  24.561   3.392
39017W        W81028   5.969   0.364   3.382
39018W        W81029   6.889  11.084   0.288
39019W        W81030  14.969  21.581   1.248
39020W        W81031  13.749   0.454  10.522
39021W        W81032  21.609  13.424   1.408
39022W        W81033   5.519  20.334   9.902
39023W        W81034   2.019  16.044  10.952
39024W        W81035   8.249  24.181   9.612
39025W        W81036  16.799  16.804   8.802
39026W        W81037  10.079  20.754   1.978
39027W        W81038   3.439   3.324  11.142
39028W        W81039  20.849  11.354   3.192
39029W        W81040   5.129   7.434   0.948
39030W        W81041   5.239  11.444   8.712
39031W        W81042   1.529   1.604   1.608
39032W        W81043   2.509   1.324   9.122
39033W        W81044  14.169  22.031   2.218
39034W        W81045  13.829  10.584   9.612
39035W        W81046  15.459   5.724   9.502
39036W        W81047  10.249   8.964   9.742
39037W        W81048   3.349  18.814   0.028
39038W        W81049  22.999  12.094  15.442
39039W        W81050   3.539  15.254  15.342
39040W        W81051   1.919  13.074  15.222
39041W        W81052  17.009  15.004   8.042
39042W        W81053  23.689   4.824   7.802
39043W        W81054   2.789  13.544   2.208
39044W        W81055  20.619  20.784   0.378
39045W        W81056  19.029   8.304   2.882
39046W        W81057   5.819  11.144  10.872
39047W        W81058  14.559  10.924   9.102
39048W        W81059   9.379  23.721   0.898
39049W        W81060   8.019   8.404   9.412
39050W        W81061  22.629   0.854   1.278
39051W        W81062  22.319  23.901  11.032
39052W        W81063   8.229   6.264  10.682
39053W        W81064  22.839   7.164   1.258
39054W        W81065   0.739   8.094   6.912
39055W        W81066  24.479  22.681   1.688
39056W        W81067  21.799  24.201   1.288
39057W        W81068   0.499  15.964  11.482
39058W        W81069  10.099   6.944   9.472
39059W        W81070   7.399  15.914  14.902
39060W        W81071  16.649   6.804  11.152
39061W        W81072   5.289   5.284   1.518
39062W        W81073   1.759  16.414   9.392
39063W        W81074   7.909   6.144  10.332
39064W        W81075  23.589  24.431   1.668
39065W        W81076  15.849  21.411   9.082
39066W        W81077   1.289  19.064   4.072
39067W        W81078  16.699  13.024  10.102
39068W        W81079  12.439  16.854  15.382
39069W        W81080  13.329  13.554   0.738
39070W        W81081  21.259   3.644  10.812
39071W        W81082  25.479   1.814   9.392
39072W        W81083  22.669  17.994   4.162
39073W        W81084  13.249   4.844   9.472
39074W        W81085  15.519   6.524   8.802
39075W        W81086  18.289  22.811   7.762
39076W        W81087   2.419   3.434  15.152
39077W        W81088  25.129  10.704   2.922
39078W        W81089  15.429  25.141   4.842
39079W        W81090  18.549   1.944  11.352
39080W        W81091  19.569  18.114   1.718
39081W        W81092   8.659  19.774   3.582
39082W        W81093  10.919  12.804  10.632
39083W        W81094  11.229   8.394   9.922
39084W        W81095   5.679  11.644  10.232
39085W        W81096  21.499   1.544   0.868
39086W        W81097  11.869   6.594   0.558
39087W        W81098  15.009  14.434  14.872
39088W        W81099  19.149   4.274   9.612
39089W        W81100  13.749   4.474   2.912
39090W        W81101  20.329  10.294   9.872
39091W        W81102  19.419   0.594   8.142
39092W        W81103   4.369  23.341  10.872
39093W        W81104   2.049  15.514   7.122
39094W        W81105   9.699  16.444  10.702
39095W        W81106  18.309  10.504   1.708
39096W        W81107   0.769  11.314  11.152
39097W        W81108   3.369   1.394   8.132
39098W        W81109  12.259  12.214   1.218
39099W        W81110  20.509  25.381   2.912
39100W        W81111  18.049   7.664  14.122
39101W        W81112   7.439  18.474   0.708
39102W        W81113  10.099  22.741   9.442
39103W        W81114  14.089   5.614  10.192
39104W        W81115   0.189  22.641   2.812
39105W        W81116  19.929  15.294   9.312
39106W        W81117   8.359   6.304   2.218
39107W        W81118  19.819  12.194   1.308
39108W        W81119  13.069   1.774   1.678
39109W        W81120  23.719  18.264   8.742
39110W        W81121  22.889  16.954   1.838
39111W        W81122   9.889   6.254  11.172
39112W        W81123  12.259  17.554   1.798
39113W        W81124  18.709  17.544   2.612
39114W        W81125   1.389  14.034   2.408
39115W        W81126  15.299  14.174   8.352
39116W        W81127   1.949  23.091   9.892
39117W        W81128  22.819  24.381   8.012
39118W        W81129  16.479  16.184  15.112
39119W        W81130  17.199  17.574   8.152
39120W        W81131  20.459  24.711  10.122
39121W        W81132   5.119  23.821  15.132
39122W        W81133  15.269  19.654  11.442
39123W        W81134  12.169  20.634   9.852
39124W        W81135  10.399  19.284   1.888
39125W        W81136  19.779   9.864   0.968
39126W        W81137  16.399  18.034  11.062
39127W        W81138  17.589  23.981   3.202
39128W        W81139  13.659  20.944  15.602
39129W        W81140   4.959  11.514   3.722
39130W        W81141   4.179   3.894  15.512
39131W        W81142   1.389  17.554  12.042
39132W        W81143  19.319   2.264  11.662
39133W        W81144   9.799  13.124  10.072
39134W        W81145   8.149  11.704   8.152
39135W        W81146  20.989   2.414   1.628
39136W        W81147   0.419  13.614   2.572
39137W        W81148   7.029  22.361  10.752
39138W        W81149  12.489   0.304  15.742
39139W        W81150  23.749   5.154   3.442
39140W        W81151   3.379  15.024   0.408
39141W        W81152   1.639  18.024   0.258
39142W        W81153  17.759   1.194  10.582
39143W        W81154   3.339  18.324   9.152
39144W        W81155  10.939   0.914  14.692
39145W        W81156   1.789  16.124  15.412
39146W        W81157   5.899   8.224   9.012
39147W        W81158  16.899  24.801   8.402
39148W        W81159  21.639  23.761   1.498
39149W        W81160   4.849  13.504   7.172
39150W        W81161   1.619   0.274  10.902
39151W        W81162  10.659  21.611   1.538
39152W        W81163  17.569  16.704  11.682
39153W        W81164  10.209  22.601   9.952
39154W        W81165  13.549  14.904   4.512
39155W        W81166   6.599  23.721   4.672
39156W        W81167  23.739  13.334   1.948
39157W        W81168  22.249  24.951   1.278
39158W        W81169  21.009  17.284   9.192
39159W        W81170  16.289   9.594   1.488
39160W        W81171  17.699  23.831   1.478
39161W        W81172  25.479  16.774   9.932
39162W        W81173  12.409   5.964  13.972
39163W        W81174  19.279   7.234   2.158
39164W        W81175   7.899   9.464   0.798
39165W        W81176   5.769  21.401   0.268
39166W        W81177  19.509  15.984   3.802
39167W        W81178  16.129   4.264  10.902
39168W        W81179  10.479   8.064  10.022
39169W        W81180  17.349   6.534   9.592
39170W        W81181  10.969  19.804  15.312
39171W        W81182   9.799  22.941   0.498
39172W        W81183  15.399  13.574   9.012
39173W        W81184  19.269  20.444  10.652
39174W        W81185   5.659  16.734   2.068
39175W        W81186  23.929   9.774   8.332
39176W        W81187  23.039   2.904   1.638
39177W        W81188  14.009   2.444   0.168
39178W        W81189  24.189   5.674  10.152
39179W        W81190  24.949   8.454   7.262
39180W        W81191   4.589  16.624   2.622
39181W        W81192  16.869   7.854   0.008
39182W        W81193   9.429   4.704  15.022
39183W        W81194  21.529  22.611   2.088
39184W        W81195  17.079   2.324  11.122
39185W        W81196  12.909  17.924   5.152
39186W        W81197  20.409   1.534  15.162
39187W        W81198   0.479   2.574   7.242
39188W        W81199  15.119  16.304   3.872
39189W        W81200  12.309  22.601   9.072
39190W        W81201   2.189  16.774   2.862
39191W        W81202   7.779   1.044   9.112
39192W        W81203  22.309  10.924   0.098
39193W        W81204  11.219  17.334   1.078
39194W        W81205   9.359  16.054   2.942
39195W        W81206  14.449  18.274   0.918
39196W        W81207  16.229  19.784   1.148
39197W        W81208   1.139  23.001   0.038
39198W        W81209   5.269   9.114   2.198
39199W        W81210   3.669  16.354   9.332
39200W        W81211  15.809  24.901   2.672
39201W        W81212  20.959  14.274  11.122
39202W        W81213   0.469   0.134   3.162
39203W        W81214  17.229  21.681   2.972
39204W        W81215   3.859   1.004   0.988
39205W        W81216  18.769   3.994   8.792
39206W        W81217  16.609  24.351   0.508
39207W        W81218   0.789  19.084   1.448
39208W        W81219  24.409  11.214   7.412
39209W        W81220  13.879   9.664   8.292
39210W        W81221   0.469  17.164   0.188
39211W        W81222   0.779  22.191  11.422
39212W        W81223   3.509  16.744   9.682
39213W        W81224  18.019   6.974   7.952
39214W        W81225   2.539   3.004   9.982
39215W        W81226  15.029  22.711   1.488
39216W        W81227  17.879  20.284   7.892
39217W        W81228  12.109   1.064   2.368
39218W        W81229  18.979  14.994   8.472
39219W        W81230  22.549  11.974   9.892
39220W        W81231  21.869   3.934   2.582
39221W        W81232   6.229  15.384   9.702
39222W        W81233  11.119  21.411   9.972
39223W        W81234   6.099  24.131  11.072
39224W        W81235  10.589  11.094  10.022
39225W        W81236  25.379   3.024   2.842
39226W        W81237  24.729   0.734   8.412
39227W        W81238   7.779   3.534   9.962
39228W        W81239  14.149  12.634   3.132
39229W        W81240   8.199  16.594   9.912
39230W        W81241   2.989   7.864   0.138
39231W        W81242  17.769  17.034   2.632
39232W        W81243   9.079   4.714   9.872
39233W        W81244  13.729   3.354   8.492
39234W        W81245  15.209  19.544   1.138
39235W        W81246  23.329  15.654   8.792
39236W        W81247   1.569   5.394   9.582
39237W        W81248  11.319  22.251   2.822
39238W        W81249  13.499  21.014   9.952
39239W        W81250  15.799   6.244  15.132
39240W        W81251   7.089  17.424   9.342
39241W        W81252  10.089   8.434   3.442
39242W        W81253   4.389  13.134  10.782
39243W        W81254  15.689  12.174   0.968
39244W        W81255   3.129   3.284   3.012
39245W        W81256  20.559  16.654   3.182
39246W        W81257   5.519   3.634   8.812
39247W        W81258  25.079  18.334   3.032
39248W        W81259  13.049   4.734   8.152
39249W        W81260   7.019  22.331   3.422
39250W        W81261   2.479  21.541   0.538
39251W        W81262  14.129  10.514   1.288
39252W        W81263  11.919  11.614   9.462
39253W        W81264   6.919  16.794   2.872
39254W        W81265   8.189   9.084   9.992
39255W        W81266  22.489  17.994   0.898
39256W        W81267   7.139   6.624   3.522
39257W        W81268  20.579  11.934  10.682
39258W        W81269   2.189   6.344  11.492
39259W        W81270  19.929  24.051  10.372
39260W        W81271  12.719   5.444  13.882
39261W        W81272  17.989  16.344  11.622
39262W        W81273  18.679   7.924   3.352
39263W        W81274   8.929  13.664  15.592
39264W        W81275  11.139  17.514   0.578
39265W        W81276  16.629  18.134   8.742
39266W        W81277   7.819  17.424   8.902
39267W        W81278  15.969  16.654   0.708
39268W        W81279   7.009   8.664   9.792
39269W        W81280   6.899  18.314   8.482
39270W        W81281  10.759  24.641   2.228
39271W        W81282  19.709   4.264   9.812
39272W        W81283  10.139  13.434  14.642
39273W        W81284   9.369   7.244   2.942
39274W        W81285   4.259  16.154   8.552
39275W        W81286  18.589  20.214  10.092
39276W        W81287   6.139  23.661  10.752
39277W        W81288  24.349   5.194  10.152
39278W        W81289   7.749   5.534   8.992
39279W        W81290   8.479   7.084   3.182
39280W        W81291   1.039   7.244   2.862
39281W        W81292   0.679  15.304   8.492
39282W        W81293  13.929  12.524   9.892
39283W        W81294  18.419  11.364   9.712
39284W        W81295   0.909  20.904   0.508
39285W        W81296   5.299  11.434   2.862
39286W        W81297   8.039  22.101   2.208
39287W        W81298   3.329   1.094   2.512
39288W        W81299   2.979  20.194   7.952
39289W        W81300   5.639   4.694  10.722
39290W        W81301  24.999  13.844   1.288
39291W        W81302   9.579  13.864  15.322
39292W        W81303   3.049  12.304   3.072
39293W        W81304  24.939  17.954   7.182
39294W        W81305  23.579   3.624   3.122
39295W        W81306   7.189   5.604   0.088
39296W        W81307  23.639  21.224   1.598
39297W        W81308   0.819  13.134   0.268
39298W        W81309   2.449   1.774  11.342
39299W        W81310   6.019   2.644  15.402
39300W        W81311   6.579  20.814   0.978
39301W        W81312   8.109   5.754   9.332
39302W        W81313  21.309   2.424   0.108
39303W        W81314   9.249  14.964   1.928
39304W        W81315  14.979  24.451   1.788
39305W        W81316  14.379  23.581   1.828
39306W        W81317   9.179  16.714   1.548
39307W        W81318  15.949  24.831   3.592
39308W        W81319  23.569  15.514  11.442
39309W        W81320   3.909  15.364  15.652
39310W        W81321   0.849  16.284  10.372
39311W        W81322   8.269  25.051   9.022
39312W        W81323   8.349  11.494   2.512
39313W        W81324  25.389   0.774   0.458
39314W        W81325   1.279   6.354   2.098
39315W        W81326  21.129  19.554  11.922
39316W        W81327  12.079   4.854   2.782
39317W        W81328  21.759   8.864   2.398
39318W        W81329  14.219   9.684   0.798
39319W        W81330  18.599  13.424   3.732
39320W        W81331  24.859   7.404   0.848
39321W        W81332  10.339   6.234   0.698
39322W        W81333  24.689  25.341  10.842
39323W        W81334   8.779   2.944   9.292
39324W        W81335  20.529  25.361  11.412
39325W        W81336   4.879   0.524   0.818
39326W        W81337   4.629   4.014   3.142
39327W        W81338   4.999   2.774   7.802
39328W        W81339   6.069   4.494   0.348
39329W        W81340  24.659  12.784   3.252
39330W        W81341   4.119  18.004  11.092
39331W        W81342  20.039   8.984  15.472
39332W        W81343  10.679   8.254   9.572
39333W        W81344  17.609  12.234  10.682
39334W        W81345   1.409  11.994   8.002
39335W        W81346   6.309   6.064  15.302
39336W        W81347   7.709   8.094   2.882
39337W        W81348   8.129  19.314   0.378
39338W        W81349  14.929  20.444   2.762
39339W        W81350  19.699  13.984   9.422
39340W        W81351   6.009  17.194   8.422
39341W        W81352  14.519   4.384   1.828
39342W        W81353  25.589  22.301   8.062
39343W        W81354  14.749  15.114   4.102
39344W        W81355  23.549   5.564  11.392
39345W        W81356   6.159   7.764   2.118
39346W        W81357   3.249   0.674   2.288
39347W        W81358  10.079   6.144   8.162
39348W        W81359  10.369   9.264   3.922
39349W        W81360  10.889   9.734  15.302
39350W        W81361   1.849  23.071   8.922
39351W        W81362  18.019   6.494   2.488
39352W        W81363  15.449   2.554   1.748
39353W        W81364  14.909  11.124  14.582
39354W        W81365  21.949  19.294   7.802
39355W        W81366  15.849  18.424   9.772
39356W        W81367   2.259  22.721   2.712
39357W        W81368   4.309   0.974  10.972
39358W        W81369  18.459   7.734   8.272
39359W        W81370  22.749  14.694   7.872
39360W        W81371   1.979  21.044  10.222
39361W        W81372   5.329  19.034   9.682
39362W        W81373  14.399  10.274   2.612
39363W        W81374  19.079   8.954   8.362
39364W        W81375   9.549  14.144   0.368
39365W        W81376  24.739  13.014   0.158
39366W        W81377  13.779  21.481   9.902
39367W        W81378   5.959  14.064  14.672
39368W        W81379   9.359  23.161   3.462
39369W        W81380  14.779  12.354   4.772
39370W        W81381  21.269   4.854   9.042
39371W        W81382  13.079  21.551   4.742
39372W        W81383  22.679  23.311   0.978
39373W        W81384   7.229   1.474   1.338
39374W        W81385  10.779  15.754   0.168
39375W        W81386   0.989  24.891   9.582
39376W        W81387  18.459  24.581   9.962
39377W        W81388  20.999  15.604  11.652
39378W        W81389   9.579  10.174   0.748
39379W        W81390  24.009  16.474   1.248
39380W        W81391  16.399  21.411  10.872
39381W        W81392  11.559  19.294   3.542
39382W        W81393  12.289   6.674   2.992
39383W        W81394   5.299  22.821  11.872
39384W        W81395   4.969  17.314   2.298
39385W        W81396  24.349  25.061   2.972
39386W        W81397  19.879   5.894  11.362
39387W        W81398  11.109   0.864   1.378
39388W        W81399  23.919   3.874  10.692
39389W        W81400   9.119  16.544   2.852
39390W        W81401  17.579   3.084  10.872
39391W        W81402  10.479  24.121   8.432
39392W        W81403  18.199  20.774   8.802
39393W        W81404   4.519  23.091   8.602
39394W        W81405  20.309   6.414  15.742
39395W        W81406  11.769  21.124   8.722
39396W        W81407   2.289  20.694   1.168
39397W        W81408   3.669  17.314  10.262
39398W        W81409   6.539   0.994  15.862
39399W        W81410   8.659  23.821   2.922
39400W        W81411   5.199   0.794   3.722
39401W        W81412  10.119   9.964  14.552
39402W        W81413  13.939  24.501  11.992
39403W        W81414   1.619  22.351   7.662
39404W        W81415   2.039  12.294   9.912
39405W        W81416  23.959  11.814   8.672
39406W        W81417  23.199   2.444   8.062
39407W        W81418   4.869  19.904  10.612
39408W        W81419  17.639   4.484   7.752
39409W        W81420  17.189   0.584   8.562
39410W        W81421   0.139   7.434   9.222
39411W        W81422  18.069   0.424   7.972
39412W        W81423  22.779   0.594  10.082
39413W        W81424   5.849   5.964   1.118
39414W        W81425  23.719  19.764  15.472
39415W        W81426  24.429  16.874  10.342
39416W        W81427  14.449  19.704   8.402
39417W        W81428  12.119   9.984  15.732
39418W        W81429   4.189   8.524   1.248
39419W        W81430  15.399   9.064   1.408
39420W        W81431   3.279  11.214   8.032
39421W        W81432  24.459  16.284   0.948
39422W        W81433  10.439  12.734  10.642
39423W        W81434  15.689  19.864   1.118
39424W        W81435  10.249  11.904  15.692
39425W        W81436   1.589  10.844   8.102
39426W        W81437   1.829  21.881   8.372
39427W        W81438  19.699  20.144   8.262
39428W        W81439  24.769  22.151   2.572
39429W        W81440   0.819  17.404   9.262
39430W        W81441  20.829  23.161  10.382
39431W        W81442  22.999  15.534   2.468
39432W        W81443   9.849   0.404   8.882
39433W        W81444   8.259   5.904   0.348
39434W        W81445  20.399  10.814  11.052
39435W        W81446  17.769   9.784  10.522
39436W        W81447  21.739  12.134   9.372
39437W        W81448  23.029  15.834  10.292
39438W        W81449  19.849  14.434  10.462
39439W        W81450  25.509   9.884   9.962
39440W        W81451  16.209   9.154   3.622
39441W        W81452  19.179   6.954   2.662
39442W        W81453  23.739  13.104   2.458
39443W        W81454  16.259  12.684  15.042
39444W        W81455   6.819   0.494   8.312
39445W        W81456  15.699  14.634  10.892
39446W        W81457  13.669  12.104   1.988
39447W        W81458  15.379  10.454   1.888
39448W        W81459  10.729   9.234   2.128
39449W        W81460  23.689  19.994  11.312
39450W        W81461   3.799   0.314   3.602
39451W        W81462  18.169   4.344  10.522
39452W        W81463  22.579  17.824   8.192
39453W        W81464   6.179  17.884  12.282
39454W        W81465  12.969  15.124   1.948
39455W        W81466   9.529   8.874  15.502
39456W        W81467   5.139  12.554   9.822
39457W        W81468  18.359  10.464   8.152
39458W        W81469   9.829  21.781   4.462
39459W        W81470  23.639  19.334   9.372
39460W        W81471  19.599  16.034   2.902
39461W        W81472   8.789   5.234   8.772
39462W        W81473  24.349  12.224   9.822
39463W        W81474  12.799   1.614   4.302
39464W        W81475  13.209  17.454   9.062
39465W        W81476   5.569  22.771   9.192
39466W        W81477   5.649   7.624   7.422
39467W        W81478  14.929   3.094   2.168
39468W        W81479   9.549  11.074   8.912
39469W        W81480  22.879  10.324  11.302
39470W        W81481  11.839   0.224   2.832
39471W        W81482  20.019   0.894   7.632
39472W        W81483  11.649  17.624   2.008
39473W        W81484   8.859   0.404   2.712
39474W        W81485   3.979  14.624   1.038
39475W        W81486   4.229  10.664   1.758
39476W        W81487  23.029  10.184  10.022
39477W        W81488  21.159   3.194  11.722
39478W        W81489   2.789   7.804  15.372
39479W        W81490  15.529  13.274   1.058
39480W        W81491   2.139   3.574   0.118
39481W        W81492  20.219  24.221   0.778
39482W        W81493  13.799   7.844  15.612
39483W        W81494  13.589  16.344   1.588
39484W        W81495  12.869  23.741   7.912
39485W        W81496  14.709   0.474   8.342
39486W        W81497   7.669  13.764   2.672
39487W        W81498  11.929  10.504   1.368
39488W        W81499  23.189  11.734   0.948
39489W        W81500   4.929  15.614   3.372
39490W        W81501  15.659  17.934   2.148
39491W        W81502  19.759  19.314   1.988
39492W        W81503  21.239  12.454   0.378
39493W        W81504   8.739  21.791  15.472
39494W        W81505  25.309   5.704   2.188
39495W        W81506   6.049   7.424   0.728
39496W        W81507  24.809   3.914   2.118
39497W        W81508  22.979  21.004   2.318
39498W        W81509  16.559  25.371   2.612
39499W        W81510  18.679  11.834  10.212
39500W        W81511   2.429  20.744   0.198
39501W        W81512   3.619   4.784   2.358
39502W        W81513  12.809   5.904   3.552
39503W        W81514  16.329  15.624  11.352
39504W        W81515  23.469   2.964   2.318
39505W        W81516  16.819  17.844   8.302
39506W        W81517  14.349   9.054  15.802
39507W        W81518  14.739  24.591   2.912
39508W        W81519   6.229  24.661   1.048
39509W        W81520   5.629   6.954   0.968
39510W        W81521  23.429  11.124   9.802
39511W        W81522  19.949   8.674   9.802
39512W        W81523   2.139  20.104   8.812
39513W        W81524   9.069   1.304   4.712
39514W        W81525   7.889  16.864   4.262
39515W        W81526  24.299  18.684   3.802
39516W        W81527  10.579  16.804   1.668
39517W        W81528   7.799  20.824  11.642
39518W        W81529  14.609  18.964  14.972
39519W        W81530  16.489  23.011   2.488
39520W        W81531  21.449  19.474  10.392
39521W        W81532  12.559  17.094   1.978
39522W        W81533  17.629   3.544   3.412
39523W        W81534   1.889  12.254   9.392
39524W        W81535  20.469   4.754   0.298
39525W        W81536  14.459  12.824   1.098
39526W        W81537  14.029   5.044  11.132
39527W        W81538  15.329  20.584  10.332
39528W        W81539  13.009  13.194   3.532
39529W        W81540   5.379   1.194   0.958
39530W        W81541  17.169   2.954  10.602
39531W        W81542   4.599  15.864   7.112
39532W        W81543  24.839  10.294   0.768
39533W        W81544  25.309   5.294   0.878
39534W        W81545   5.329  17.004   2.892
39535W        W81546  23.609   2.304  11.202
39536W        W81547  23.189   4.774   6.832
39537W        W81548  11.449  21.401   0.058
39538W        W81549  18.739  10.314  10.932
39539W        W81550   4.129  21.831   0.908
39540W        W81551   7.239  21.761  10.012
39541W        W81552   2.769   7.154   0.538
39542W        W81553   4.669   0.004  11.252
39543W        W81554   7.449   0.024   8.122
39544W        W81555   8.119   6.914  14.882
39545W        W81556  11.929   3.484   1.158
39546W        W81557  14.019  23.601   2.258
39547W        W81558  22.849   2.604   2.762
39548W        W81559  20.539  24.571   0.328
39549W        W81560   9.909  13.204   2.882
39550W        W81561  18.879  24.741   9.032
39551W        W81562   7.839   5.724   3.792
39552W        W81563  21.259  15.974   9.262
39553W        W81564  17.319   0.684   9.972
39554W        W81565   4.209  24.031   0.898
39555W        W81566  22.329   8.674   2.038
39556W        W81567  13.479   6.634   2.892
39557W        W81568   0.489   2.814   1.488
39558W        W81569   7.729  19.434   8.222
39559W        W81570   2.319   2.544   9.152
39560W        W81571  19.119  21.344   1.788
39561W        W81572   7.069  13.004   2.542
39562W        W81573   2.489   2.294   9.592
39563W        W81574   7.709   1.664  10.742
39564W        W81575  14.089   2.704   9.962
39565W        W81576  13.529  22.201  10.802
39566W        W81577  15.459   1.344   3.912
39567W        W81578  13.909  13.004   1.328
39568W        W81579   7.989  24.971   8.592
39569W        W81580   8.809  15.924   4.052
39570W        W81581   8.629   8.134   8.822
39571W        W81582  20.319  22.391   2.962
39572W        W81583  19.749  23.611  11.212
39573W        W81584  17.479  20.454   1.868
39574W        W81585  24.859   5.844  11.402
39575W        W81586  10.609  11.544   0.718
39576W        W81587  15.169   1.054  10.752
39577W        W81588  11.569   3.674   0.338
39578W        W81589  18.699  20.684   8.002
39579W        W81590  20.739   2.814   0.768
39580W        W81591   9.549  12.104  13.792
39581W        W81592   5.069  13.794  11.022
39582W        W81593  24.789  15.944   1.128
39583W        W81594   5.229   3.614   0.398
39584W        W81595   0.369  21.194   8.672
39585W        W81596  21.969  14.024  10.972
39586W        W81597   7.879   0.984   4.262
39587W        W81598  23.529  16.534  11.532
39588W        W81599   6.319   9.924  15.312
39589W        W81600   6.259  18.974   1.468
39590W        W81601  15.779  24.831   9.642
39591W        W81602  18.069  10.454   2.502
39592W        W81603  19.599   3.514   9.202
39593W        W81604  22.299  15.804   0.268
39594W        W81605  11.179  12.854   4.862
39595W        W81606   2.859   7.484   0.938
39596W        W81607  24.669   2.754   2.248
39597W        W81608   3.819   3.864   1.358
39598W        W81609  11.209  14.104  15.512
39599W        W81610   5.349   7.984  15.842
39600W        W81611  24.939  24.701  11.382
39601W        W81612   6.799   5.844  14.662
39602W        W81613   3.019  18.814   3.562
39603W        W81614   5.889  15.754   1.418
39604W        W81615  25.359  25.511  10.262
39605W        W81616  17.319   0.664   0.348
39606W        W81617  20.109  10.304   8.922
39607W        W81618  16.589  22.301   8.682
39608W        W81619  20.019   1.484   0.978
39609W        W81620  24.469   1.004   3.062
39610W        W81621   3.649   2.434  10.362
39611W        W81622  21.629  11.494   1.168
39612W        W81623  20.349  15.814  10.482
39613W        W81624  17.059  13.124  10.892
39614W        W81625  24.929   5.834   2.722
39615W        W81626   8.479   1.234   0.168
39616W        W81627  17.619   4.314   8.282
39617W        W81628  19.849  16.924   7.572
39618W        W81629  13.269   6.974   1.148
39619W        W81630  12.469  13.754   0.858
39620W        W81631  10.469  18.364   9.352
39621W        W81632  24.379  17.114   8.032
39622W        W81633  15.419  18.624   3.412
39623W        W81634  10.209  14.454   1.648
39624W        W81635   0.011  23.201   8.462
39625W        W81636  17.419  17.504   9.792
39626W        W81637  12.069   8.214   1.298
39627W        W81638   0.289  15.084  11.412
39628W        W81639  19.059  11.374   3.292
39629W        W81640  17.479  17.934   8.422
39630W        W81641   6.749   9.094   9.702
39631W        W81642  14.849  13.824   4.832
39632W        W81643   6.229   7.324  10.412
39633W        W81644  15.619   4.244   0.968
39634W        W81645   9.659  18.184   8.232
39635W        W81646   9.049   2.754   1.508
39636W        W81647  16.349  13.814   9.402
39637W        W81648   1.359  24.231  15.182
39638W        W81649  23.979  19.294   1.438
39639W        W81650   0.439   9.554   3.062
39640W        W81651  20.309   9.414   0.738
39641W        W81652  12.809   3.274   2.078
39642W        W81653  13.509   3.094   9.252
39643W        W81654  13.999  12.274   2.348
39644W        W81655  24.799   6.534   2.278
39645W        W81656  12.879  10.964   9.872
39646W        W81657  13.859  19.804   3.522
39647W        W81658  11.009   8.774  15.132
39648W        W81659   1.239  18.344   8.052
39649W        W81660  19.099  23.931   9.272
39650W        W81661  12.399  14.284   9.522
39651W        W81662  19.739  12.554   7.992
39652W        W81663  23.509  11.244   3.542
39653W        W81664  11.449  11.974   3.212
39654W        W81665  18.599   6.984  10.252
39655W        W81666  10.739  19.914   4.892
39656W        W81667  12.659   7.354   4.042
39657W        W81668  23.809   1.464   1.568
39658W        W81669   3.569  20.324   3.112
39659W        W81670  13.179  20.974  15.542
39660W        W81671  17.999  23.671   8.462
39661W        W81672  19.879  21.004   3.202
39662W        W81673  21.349   2.394   1.968
39663W        W81674   7.599   1.404   8.112
39664W        W81675   2.419   5.604   8.652
39665W        W81676   8.259   9.434   3.392
39666W        W81677  22.269  19.414   2.972
39667W        W81678   2.109  10.244   3.722
39668W        W81679  25.089   5.374   2.512
39669W        W81680   3.779  20.274   4.822
39670W        W81681  17.099   6.534   8.282
39671W        W81682  20.839   6.384  11.302
39672W        W81683  19.259  11.624  10.052
39673W        W81684   2.069   3.194   8.602
39674W        W81685   2.339   0.464   2.572
39675W        W81686  21.869  12.854   2.612
39676W        W81687   6.479  23.051  10.182
39677W        W81688  22.859  23.031   2.652
39678W        W81689  18.239  11.974   0.078
39679W        W81690  23.459  10.624   3.642
39680W        W81691  24.509  20.194   8.262
39681W        W81692  11.399   5.964   2.268
39682W        W81693  12.739  17.504   3.102
39683W        W81694  15.739   4.784   1.148
39684W        W81695  17.569   7.454  10.582
39685W        W81696   7.339  10.434   2.068
39686W        W81697  25.349  11.114   0.478
39687W        W81698  11.219   7.254   2.852
39688W        W81699  23.369  19.454   1.468
39689W        W81700  19.359  10.484   1.818
39690W        W81701  12.259   9.114   1.968
39691W        W81702   2.089   6.054  10.242
39692W        W81703  22.409  14.574   8.732
39693W        W81704   2.949   9.754   1.908
39694W        W81705  21.899   5.674   8.852
39695W        W81706  12.259  14.224  10.042
39696W        W81707  24.479  22.491  12.392
39697W        W81708  12.119  16.584   9.792
39698W        W81709  19.709  13.934  11.482
39699W        W81710  10.269   6.164   9.642
39700W        W81711  15.319  23.001  11.422
39701W        W81712   8.229   0.424   3.492
39702W        W81713  25.489   8.274   8.082
39703W        W81714  17.549   5.644   9.882
39704W        W81715   8.599   1.824   0.198
39705W        W81716   4.179  23.721   9.352
39706W        W81717  10.689   6.144   1.218
39707W        W81718   5.079  13.994   9.452
39708W        W81719  17.079   3.714   1.348
39709W        W81720   3.349   9.824  10.902
39710W        W81721  25.249  20.664   3.682
39711W        W81722  22.489   0.244  11.042
39712W        W81723   1.539  23.291   7.432
39713W        W81724   3.829   3.134  10.172
39714W        W81725   6.939   2.864   0.478
39715W        W81726   4.169   9.894   1.388
39716W        W81727  25.319  19.024  11.562
39717W        W81728  12.249  11.814  10.322
39718W        W81729   6.209  22.261  10.792
39719W        W81730  23.759   2.594   2.572
39720W        W81731   4.949  24.431  10.852
39721W        W81732  12.099  21.841   9.982
39722W        W81733  19.109   6.764   0.538
39723W        W81734   7.419  22.471   4.512
39724W        W81735  24.839  24.981   1.448
39725W        W81736  18.529  10.444  15.532
39726W        W81737  21.459  19.714   0.088
39727W        W81738  21.309  20.054  11.702
39728W        W81739   3.559  16.344   1.698
39729W        W81740   3.589  16.384  11.092
39730W        W81741   2.029  22.051   9.962
39731W        W81742  12.009  18.924   4.272
39732W        W81743   0.529  10.894   1.078
39733W        W81744   0.539   4.224   2.318
39734W        W81745  22.389   1.024  12.062
39735W        W81746  12.979  11.944   1.688
39736W        W81747  15.899   4.804   1.998
39737W        W81748  20.839   5.714   2.228
39738W        W81749   7.949  14.894   1.698
39739W        W81750  16.539  24.981   8.892
39740W        W81751  18.079   2.954  10.682
39741W        W81752   0.309   8.904  10.202
39742W        W81753  16.409  13.324   1.868
39743W        W81754   7.839   1.044   3.302
39744W        W81755  18.059   7.364   0.828
39745W        W81756   2.649   1.694   3.442
39746W        W81757   6.769  19.014   7.682
39747W        W81758  10.709  15.014  15.542
39748W        W81759  10.299  11.474  15.362
39749W        W81760  19.209  11.534   0.698
39750W        W81761  25.509   7.264   1.988
39751W        W81762  14.969   4.124   2.078
39752W        W81763  12.059  19.084  11.212
39753W        W81764  14.999  11.294   2.008
39754W        W81765  16.829  22.661   2.792
39755W        W81766   0.149  14.134   1.438
39756W        W81767   6.789  10.334   9.082
39757W        W81768  16.639   2.134   3.172
39758W        W81769   4.749   0.984   0.778
39759W        W81770   4.079   0.914  10.492
39760W        W81771  14.839   3.244   3.202
39761W        W81772  10.489  11.494   0.008
39762W        W81773  22.169  17.774  11.852
39763W        W81774   9.239  23.711   9.022
39764W        W81775   6.519  21.521   2.338
39765W        W81776  22.539  11.874  10.412
39766W        W81777  14.419  12.324   2.852
39767W        W81778  16.249  13.884   4.602
39768W        W81779  25.159  13.024   3.182
39769W        W81780   1.929  14.844   8.182
39770W        W81781  15.609  17.384   0.438
39771W        W81782  24.139   3.924   0.208
39772W        W81783  22.849  14.834   3.292
39773W        W81784  15.919  19.434   9.502
39774W        W81785  11.559  24.681   8.562
39775W        W81786  12.119   9.614   1.918
39776W        W81787  22.409   7.104  11.702
39777W        W81788  20.389  11.404   3.372
39778W        W81789  10.829   5.524   4.572
39779W        W81790  22.789  20.124  10.142
39780W        W81791   7.279   8.544  10.282
39781W        W81792   8.639   6.544  15.642
39782W        W81793  14.989   3.854   8.012
39783W        W81794  25.119  23.371   0.928
39784W        W81795   7.309   4.964  10.692
39785W        W81796   8.779  21.531   2.572
39786W        W81797   3.749  12.544   3.402
39787W        W81798  23.059  13.554   7.502
39788W        W81799   1.489   6.224   0.688
39789W        W81800  10.539  10.084   9.922
39790W        W81801  16.349  19.014   1.628
39791W        W81802  12.829   9.714   5.142
39792W        W81803   5.249   2.144   1.428
39793W        W81804  16.059   2.714   1.318
39794W        W81805  25.239  21.911   1.778
39795W        W81806   9.229  18.414   2.522
39796W        W81807   0.509   5.794   8.602
39797W        W81808  17.019  18.644   9.552
39798W        W81809  15.069  18.744   8.942
39799W        W81810  16.499   8.614   3.542
39800W        W81811   0.669   8.604   8.402
39801W        W81812   2.199  21.234   8.382
39802W        W81813  23.239   3.794   7.512
39803W        W81814   9.979   5.824   4.272
39804W        W81815   5.189  21.981   0.878
39805W        W81816  19.389  17.424  11.692
39806W        W81817   2.459  23.701   0.478
39807W        W81818   1.809   5.464  11.042
39808W        W81819  12.169  11.554   1.778
39809W        W81820  20.639  19.654   8.192
39810W        W81821   3.709   8.304  15.562
39811W        W81822  10.639   3.054  15.592
39812W        W81823  22.879  15.264   3.632
39813W        W81824   7.899  16.414   3.052
39814W        W81825  22.659   1.154   2.612
39815W        W81826  15.479  19.634  15.672
39816W        W81827  18.789  17.844   7.692
39817W        W81828  20.319  25.201  10.942
39818W        W81829  21.079   1.804   8.892
39819W        W81830  13.009  23.661   0.618
39820W        W81831   5.039  14.414   9.212
39821W        W81832  15.889  23.331   3.162
39822W        W81833   0.459  15.604  12.202
39823W        W81834  19.269   8.054  10.262
39824W        W81835  14.919   2.224   9.102
39825W        W81836   4.459   2.684   0.918
39826W        W81837   2.319   4.284   8.602
39827W        W81838  13.899  21.451  15.772
39828W        W81839  12.009   9.174   9.612
39829W        W81840  18.389   1.844   1.648
39830W        W81841  23.489  14.194  10.752
39831W        W81842   6.569  23.351   2.088
39832W        W81843   6.149  10.354   9.732
39833W        W81844  18.469  12.154   1.098
39834W        W81845  17.769  18.684   2.498
39835W        W81846   6.149  10.044  15.762
39836W        W81847  24.719   8.344   2.992
39837W        W81848  11.089  24.671   1.808
39838W        W81849  25.119  16.754   0.468
39839W        W81850  13.309   4.514   9.912
39840W        W81851  21.099   1.744  10.262
39841W        W81852  14.719   0.794   1.178
39842W        W81853  10.699   5.624   3.692
39843W        W81854  14.679  24.391   8.592
39844W        W81855   0.689  18.334   2.502
39845W        W81856  17.789   2.784  15.282
39846W        W81857  21.479   1.904   1.918
39847W        W81858   9.889  18.884   4.312
39848W        W81859  15.079   6.304   2.942
39849W        W81860  20.849  14.804  15.792
39850W        W81861   4.119  13.814   2.902
39851W        W81862   9.629  17.764   1.208
39852W        W81863   9.479  25.311   4.802
39853W        W81864  25.479  18.304   1.238
39854W        W81865  15.429   6.334   2.028
39855W        W81866  18.149  17.354  10.112
39856W        W81867   0.939   4.104   1.308
39857W        W81868  22.819  22.111   7.922
39858W        W81869  23.919   5.384   8.382
39859W        W81870  24.219   8.824   8.372
39860W        W81871   7.739  24.811   7.652
39861W        W81872  12.409  13.974   1.758
39862W        W81873   7.209   3.304  10.722
39863W        W81874  13.669   7.284  15.662
39864W        W81875  13.089  19.334   4.952
39865W        W81876   5.859  17.954   8.682
39866W        W81877  20.059  16.794   8.412
39867W        W81878  20.229   8.094   1.998
39868W        W81879   8.369  25.311  10.562
39869W        W81880  11.969  10.804   0.118
39870W        W81881  13.179  24.781  15.132
39871W        W81882  21.449  22.741   8.752
39872W        W81883   9.309  16.834   2.468
39873W        W81884  24.539   3.344   9.452
39874W        W81885  16.189  12.114   1.488
39875W        W81886   1.799  13.934   0.468
39876W        W81887  16.289  16.094   0.008
39877W        W81888   0.139   6.954  15.732
39878W        W81889   0.389  12.784   2.712
39879W        W81890  20.719   8.574   7.892
39880W        W81891   4.719   9.624   2.682
39881W        W81892  16.309  17.484  11.342
39882W        W81893  10.689  18.634   4.492
39883W        W81894  18.209  17.344   8.972
39884W        W81895  20.539  16.364   3.592
39885W        W81896  22.439   7.404   3.452
39886W        W81897  23.109  14.404   2.458
39887W        W81898   2.869   8.084   1.868
39888W        W81899   3.379   5.214  14.552
39889W        W81900  21.429  10.694   7.742
39890W        W81901  14.829   5.564   9.662
39891W        W81902  15.929  13.784   2.582
39892W        W81903  16.309  15.664   2.712
39893W        W81904   6.089  14.224   0.138
39894W        W81905  23.379  10.644   9.822
39895W        W81906   2.879  20.494  12.102
39896W        W81907  16.769  23.261   2.178
39897W        W81908  23.579  15.764   9.252
39898W        W81909  22.989  20.334   1.608
39899W        W81910   2.229   3.834  10.602
39900W        W81911   9.689  19.884   1.148
39901W        W81912  23.829   9.504   6.962
39902W        W81913   3.729  22.691   1.078
39903W        W81914   6.709  16.594   9.472
39904W        W81915  20.899   7.894   7.942
39905W        W81916  24.389  11.824  11.262
39906W        W81917  12.199   5.244   9.022
39907W        W81918   8.809  16.094  11.332
39908W        W81919   1.339   0.474   9.302
39909W        W81920   9.659   5.484   8.352
39910W        W81921  19.959  11.854   9.242
39911W        W81922   1.229  17.974   9.082
39912W        W81923  16.029   1.344   3.272
39913W        W81924   3.529   9.354   9.252
39914W        W81925   3.009  13.474   3.582
39915W        W81926  10.349   0.524   7.642
39916W        W81927   9.299   4.524   3.262
39917W        W81928   9.539  21.084   9.922
39918W        W81929   6.219  12.454   8.262
39919W        W81930  17.589   6.854  11.162
39920W        W81931  22.169  22.901   1.158
39921W        W81932   9.779  22.911  15.442
39922W        W81933  12.699   4.104  15.142
39923W        W81934  10.639   9.674  10.252
39924W        W81935  17.289  15.054   2.582
39925W        W81936   8.859  25.011  10.282
39926W        W81937   3.829  13.594  10.392
39927W        W81938   0.879   5.304  10.692
39928W        W81939   3.369  22.191   1.358
39929W        W81940   7.049   5.954   8.742
39930W        W81941  20.809  23.361   0.528
39931W        W81942  25.049   3.874   1.168
39932W        W81943  16.639  15.624   1.038
39933W        W81944  11.959  22.931   9.852
39934W        W81945  15.199  19.104  10.082
39935W        W81946   6.779  22.281   8.492
39936W        W81947   1.139  22.861   8.562
39937W        W81948  24.019  11.134   2.138
39938W        W81949  12.569   6.504  15.802
39939W        W81950  19.819  14.104   2.178
39940W        W81951  22.479  10.734   9.412
39941W        W81952   2.009  12.054   0.488
39942W        W81953  21.179  14.404  11.562
39943W        W81954   1.899   0.034  10.632
39944W        W81955   7.519   6.014   2.882
39945W        W81956  15.069  15.944  14.672
39946W        W81957   2.929  24.721   0.548
39947W        W81958   7.939   9.884   1.588
39948W        W81959   8.439   1.854   0.668
39949W        W81960   1.589  10.774   8.982
39950W        W81961  15.269  21.304   4.612
39951W        W81962  24.469  11.824   2.228
39952W        W81963   3.179  15.894   0.948
39953W        W81964  13.299  16.564  15.732
39954W        W81965  19.339   3.564   0.588
39955W        W81966  12.059   1.684   3.122
39956W        W81967   8.019   2.554  15.832
39957W        W81968  17.899   7.204   9.892
39958W        W81969  22.909   7.494   0.098
39959W        W81970   9.419   0.324   9.282
39960W        W81971  18.419  19.704   9.172
39961W        W81972  17.739  15.344   0.378
39962W        W81973  24.279  10.224   0.128
39963W        W81974   6.449   5.274   3.222
39964W        W81975   2.699  20.614   3.562
39965W        W81976   5.809  16.274   2.238
39966W        W81977  25.529  19.454   3.542
39967W        W81978   1.619   3.004  11.642
39968W        W81979   9.189  17.484  15.712
39969W        W81980  13.129  12.074   2.812
39970W        W81981  15.039   8.524   9.902
39971W        W81982  13.439  24.351   3.122
39972W        W81983  19.909  20.254   2.812
39973W        W81984  17.419  21.891   8.152
39974W        W81985  14.609  13.814   0.248
39975W        W81986  23.249  19.724  10.812
39976W        W81987  15.349  24.751   1.988
39977W        W81988   3.589  20.934   0.768
39978W        W81989  13.219   6.134   1.048
39979W        W81990   8.829   5.984   7.302
39980W        W81991   4.589   5.334   0.508
39981W        W81992  22.509   0.744   1.758
39982W        W81993  13.289  25.281  10.142
39983W        W81994   7.039  13.414  15.412
39984W        W81995  19.659  19.264   9.812
39985W        W81996  17.389   8.894  10.802
39986W        W81997  10.209  10.744   0.638
39987W        W81998  22.379  12.744   1.118
39988W        W81999   8.179   3.434   0.558
39989W        W82000  21.189   2.804   2.982
39990W        W82001   2.229  16.574   1.448
39991W        W82002  16.279  24.151  11.352
39992W        W82003  17.619  19.834  10.412
39993W        W82004  24.709   2.614  15.862
39994W        W82005   5.059   1.504   8.242
39995W        W82006   8.759  13.504   0.188
39996W        W82007   6.899  25.391   9.962
39997W        W82008   6.959  21.224   8.942
39998W        W82009  24.039  17.034   1.248
39999W        W82010   4.089   0.934   2.912
40000W        W82011   0.359  19.004   9.532
40001W        W82012  13.669   0.924   2.448
40002W        W82013   4.979  25.461   8.032
40003W        W82014  20.619  24.741   9.032
40004W        W82015   3.469   3.594   1.658
40005W        W82016  11.649  17.634   3.292
40006W        W82017   2.249  12.074   8.852
40007W        W82018  10.079   6.274   1.628
40008W        W82019   2.629  17.884  10.262
40009W        W82020  23.619  15.074   2.822
40010W        W82021  19.349  22.951   9.012
40011W        W82022  24.319   0.984   2.248
40012W        W82023  20.899   3.534   2.972
40013W        W82024  10.619  15.894   0.628
40014W        W82025  24.029  15.094   7.282
40015W        W82026  19.489   9.274   7.452
40016W        W82027  20.609  15.374   7.522
40017W        W82028  20.769  11.114  10.522
40018W        W82029   0.489  10.024   9.422
40019W        W82030   4.979  14.834   8.912
40020W        W82031  24.439   2.794   8.272
40021W        W82032   0.409   8.774   9.262
40022W        W82033  12.839  15.974  15.012
40023W        W82034  17.569   3.714   0.608
40024W        W82035   6.199  22.941   1.988
40025W        W82036  22.909  10.214   1.398
40026W        W82037  17.249   7.874   2.542
40027W        W82038   2.079  17.874   7.672
40028W        W82039   2.589  13.724  11.642
40029W        W82040   7.579  20.524   8.942
40030W        W82041  22.599   3.254  11.012
40031W        W82042  17.199   5.644  11.562
40032W        W82043  16.969  18.024   0.288
40033W        W82044  25.239  11.144   9.892
40034W        W82045  13.649  18.774   5.262
40035W        W82046   8.579   7.474  11.032
40036W        W82047  20.799   9.354   1.878
40037W        W82048   0.011   5.564   9.542
40038W        W82049   6.359   0.944  11.562
40039W        W82050  19.229  24.761  10.592
40040W        W82051  12.099  17.484   2.498
40041W        W82052  17.349   3.574   7.812
40042W        W82053  16.299  11.064   0.048
40043W        W82054  17.179   3.914   0.288
40044W        W82055  19.149  24.781   8.522
40045W        W82056  10.929  17.584  14.912
40046W        W82057  22.599  19.534   3.802
40047W        W82058   5.909  19.074   2.118
40048W        W82059  11.619  12.594   0.738
40049W        W82060  18.579   9.644   0.778
40050W        W82061   3.279   8.524   7.242
40051W        W82062   6.539  22.271  15.842
40052W        W82063  23.339  22.231   2.822
40053W        W82064  17.159  16.964  15.802
40054W        W82065   5.589   0.234   0.568
40055W        W82066  17.189   7.394   1.818
40056W        W82067  17.719   4.584   3.442
40057W        W82068   2.859   3.024   8.522
40058W        W82069  13.519  19.364   3.372
40059W        W82070  23.879  23.511  11.992
40060W        W82071  20.719  14.274   3.052
40061W        W82072  25.209  11.804  10.152
40062W        W82073  25.299   3.254  15.352
40063W        W82074   6.549  20.754  15.242
40064W        W82075  15.729  24.321   9.732
40065W        W82076  24.779   1.604   2.438
40066W        W82077  23.209  21.751   7.892
40067W        W82078  11.559  17.944   9.622
40068W        W82079  19.179   5.654   9.972
40069W        W82080   3.929  10.524   7.742
40070W        W82081   7.999  20.534   2.288
40071W        W82082   6.689  18.634  11.832
40072W        W82083  11.169  21.204  15.622
40073W        W82084  15.209  14.294   2.862
40074W        W82085  23.999   8.124   0.038
40075W        W82086  11.129  10.214   0.898
40076W        W82087   6.999  12.834   9.272
40077W        W82088  12.989  20.934   8.012
40078W        W82089   4.869  17.714   1.878
40079W        W82090   7.369   6.994   8.992
40080W        W82091  13.929   0.954  10.512
40081W        W82092   2.029  20.644   9.592
40082W        W82093   7.719  18.794   1.718
40083W        W82094  22.949  11.574   2.438
40084W        W82095  10.579   4.274  15.672
40085W        W82096  22.459   9.704   7.712
40086W        W82097   6.639  23.851   2.228
40087W        W82098   1.229  19.514  10.042
40088W        W82099  21.499  18.324   8.082
40089W        W82100   1.079  20.924   3.372
40090W        W82101  19.449   7.414  10.912
40091W        W82102  16.139  21.314   1.798
40092W        W82103  10.199  15.064  10.072
40093W        W82104  14.329   0.934   2.792
40094W        W82105  19.579  17.864   0.348
40095W        W82106  16.219  10.454   9.682
40096W        W82107  15.069  18.944  15.802
40097W        W82108  17.249  23.541   2.228
40098W        W82109  21.429   7.584   9.202
40099W        W82110  10.119   0.374   2.752
40100W        W82111  21.919   8.354   2.128
40101W        W82112  15.669   6.694  15.362
40102W        W82113  12.309  21.481   9.652
40103W        W82114  21.779   2.614   9.482
40104W        W82115  20.859  18.244  11.292
40105W        W82116  18.769   3.744   9.282
40106W        W82117  25.309  10.714  15.842
40107W        W82118   5.719  13.334   1.998
40108W        W82119  18.169  15.584   8.302
40109W        W82120  10.909  18.524  11.152
40110W        W82121   8.149  11.694   0.928
40111W        W82122  14.189  24.901   2.822
40112W        W82123  22.559  22.311  10.152
40113W        W82124  23.049  24.631  10.772
40114W        W82125  20.239  17.374  11.362
40115W        W82126   5.489  21.681  10.972
40116W        W82127   1.539  16.604   1.938
40117W        W82128   5.149   0.584   0.148
40118W        W82129  22.729   7.774   9.532
40119W        W82130  14.819  12.354  14.462
40120W        W82131   2.029   1.414   1.908
40121W        W82132  14.449  10.794   9.632
40122W        W82133   2.779  10.944   3.822
40123W        W82134   9.349  12.314  14.222
40124W        W82135   8.709  23.441   9.302
40125W        W82136  20.519  14.044   9.472
40126W        W82137  12.689   4.604  15.262
40127W        W82138  17.169  19.424  11.242
40128W        W82139   3.699  20.544   8.642
40129W        W82140  23.129  21.361  10.132
40130W        W82141  14.079  13.074   1.968
40131W        W82142   3.729  21.511  10.922
40132W        W82143  11.219   4.724   3.702
40133W        W82144  15.279  11.504   0.598
40134W        W82145  11.459  23.481   4.072
40135W        W82146   4.199  19.204   8.532
40136W        W82147   9.349   7.054  15.602
40137W        W82148  11.919  23.721   3.972
40138W        W82149   7.579   3.004   9.862
40139W        W82150  17.199  21.771   2.448
40140W        W82151  12.399  21.244   0.268
40141W        W82152  13.269   8.954   2.742
40142W        W82153  24.799  11.454  15.532
40143W        W82154   6.989   6.784  10.942
40144W        W82155   0.349   9.734   1.908
40145W        W82156  23.949  12.324   8.742
40146W        W82157  15.699   5.144   4.062
40147W        W82158  22.019   5.234   8.472
40148W        W82159  18.909  17.204  11.662
40149W        W82160  18.059   1.004  10.032
40150W        W82161   6.519   6.524   0.928
40151W        W82162  22.949  12.654  15.752
40152W        W82163  14.979   1.044   3.632
40153W        W82164  22.809   7.674   8.602
40154W        W82165   6.719   7.344   2.048
40155W        W82166   2.149   2.354  11.042
40156W        W82167   8.129  25.091  10.962
40157W        W82168   4.569  10.074   0.478
40158W        W82169  18.849  14.264   1.358
40159W        W82170   3.329  23.861  10.352
40160W        W82171  13.989  10.924   4.372
40161W        W82172   6.919   6.944   9.762
40162W        W82173  13.259   7.954   3.412
40163W        W82174  16.709  19.584  10.272
40164W        W82175  12.049   6.914   2.572
40165W        W82176  13.539  24.411   9.042
40166W        W82177  13.869  22.371   3.952
40167W        W82178  24.149   7.674   1.858
40168W        W82179  21.749  11.724   2.562
40169W        W82180  14.959  17.314   3.512
40170W        W82181   2.849  21.214   2.952
40171W        W82182  12.249  20.624  10.842
40172W        W82183   7.429  11.144  15.742
40173W        W82184   6.899  21.691  15.742
40174W        W82185  21.229  10.334   1.618
40175W        W82186  17.489  14.974   8.662
40176W        W82187   8.529  22.291   2.048
40177W        W82188  17.709   9.054  15.292
40178W        W82189  14.829   3.704   9.322
40179W        W82190  25.539  22.091   0.428
40180W        W82191   0.999   6.474   0.668
40181W        W82192   4.119  10.324   9.722
40182W        W82193  20.919  15.164  15.422
40183W        W82194  24.149  25.321   8.552
40184W        W82195   1.569   9.514   8.462
40185W        W82196  20.699   7.934   2.038
40186W        W82197   0.699  23.521  10.832
40187W        W82198   0.299  20.984   9.292
40188W        W82199  10.759  18.324   0.118
40189W        W82200  15.229  23.371   0.058
40190W        W82201   7.459   9.034   3.342
40191W        W82202  15.389   7.694  10.942
40192W        W82203  20.999   4.104  11.342
40193W        W82204   3.149  25.101   8.042
40194W        W82205   8.339  16.244  14.702
40195W        W82206   3.639   9.294   0.868
40196W        W82207   4.639  17.154  10.592
40197W        W82208   3.529   4.224   1.498
40198W        W82209   7.609   8.954   1.728
40199W        W82210   2.629  13.314  10.722
40200W        W82211   9.879  19.754  14.742
40201W        W82212  16.599   5.694   4.572
40202W        W82213  19.259   1.344   8.822
40203W        W82214  24.189  21.531   8.142
40204W        W82215  15.149  20.014   1.298
40205W        W82216   0.959   4.034   9.982
40206W        W82217   2.189  14.554   8.472
40207W        W82218  10.959  22.581  10.842
40208W        W82219  18.019  14.594   1.038
40209W        W82220  22.119  14.354  11.372
40210W        W82221  15.139  18.274   7.982
40211W        W82222  10.739   8.254   1.428
40212W        W82223  23.089   6.534  11.412
40213W        W82224   9.489   1.934   8.282
40214W        W82225  14.199   1.794   9.652
40215W        W82226  18.309  13.034   2.088
40216W        W82227  22.509  24.641  10.632
40217W        W82228  13.359   3.104  14.902
40218W        W82229  17.949  16.134  10.062
40219W        W82230  10.169   2.194   9.192
40220W        W82231  24.129   4.914   8.122
40221W        W82232  22.799  12.044   7.942
40222W        W82233  16.789  23.671   4.122
40223W        W82234   5.289   2.854  10.652
40224W        W82235   5.969   5.984   2.732
40225W        W82236   1.509  14.334   0.368
40226W        W82237   7.679   2.214   0.138
40227W        W82238  13.459   7.684   0.088
40228W        W82239  15.639  18.444  10.752
40229W        W82240  11.999   9.274   9.082
40230W        W82241   9.449   1.114   7.772
40231W        W82242   0.739   1.904   6.922
40232W        W82243   7.469  15.004   3.852
40233W        W82244  15.279   5.554   3.162
40234W        W82245  21.599   3.274   8.172
40235W        W82246  23.869  17.014  11.392
40236W        W82247   2.329  22.761   9.932
40237W        W82248  12.879  24.581   0.858
40238W        W82249  12.729   2.694   0.468
40239W        W82250  13.079   2.184  15.602
40240W        W82251  19.689   5.884   0.058
40241W        W82252  24.319   3.794   9.582
40242W        W82253  10.779   0.244  15.472
40243W        W82254   9.879  13.804   9.992
40244W        W82255  22.099  15.024   9.722
40245W        W82256  17.589   7.084   8.912
40246W        W82257  16.419  16.174   3.092
40247W        W82258  20.199  11.854   2.308
40248W        W82259  12.939  20.214  10.262
40249W        W82260  23.439  22.811   0.648
40250W        W82261  25.159  14.004   7.282
40251W        W82262  17.499  20.444   1.338
40252W        W82263  10.349   3.524   1.868
40253W        W82264   4.899   7.534   8.602
40254W        W82265   1.589   6.694  15.792
40255W        W82266   2.579   0.224   3.742
40256W        W82267   3.609  12.934  15.772
40257W        W82268   9.969  21.184  14.852
40258W        W82269   6.879   0.484   9.942
40259W        W82270  20.149  23.201  10.242
40260W        W82271   2.259  12.244  10.362
40261W        W82272  24.609  17.844   2.438
40262W        W82273   0.789  20.394  15.372
40263W        W82274  15.369   4.424   0.568
40264W        W82275  12.049   0.794   2.782
40265W        W82276  10.459  25.331   9.912
40266W        W82277  21.319  20.424  10.722
40267W        W82278  17.979  14.624   9.452
40268W        W82279  10.039  14.084   0.268
40269W        W82280  15.779  22.951  15.102
40270W        W82281   4.349  25.411   0.758
40271W        W82282  14.569  16.324   8.502
40272W        W82283  20.669   5.924  10.272
40273W        W82284  13.039   8.624  10.892
40274W        W82285  24.289  17.594   4.122
40275W        W82286  11.899  13.054  10.162
40276W        W82287  13.669  25.111  10.482
40277W        W82288   2.079  11.784   1.598
40278W        W82289  15.079  14.804   3.032
40279W        W82290  14.279  13.144   3.032
40280W        W82291   1.019  11.934   8.962
40281W        W82292  15.189  23.731   1.218
40282W        W82293   9.189   2.684   9.512
40283W        W82294  18.409  19.784   7.922
40284W        W82295   7.969  23.071   8.912
40285W        W82296  21.889  12.284   9.892
40286W        W82297   8.729  21.781  14.892
40287W        W82298  19.809   9.674   7.232
40288W        W82299  25.199   3.564  10.332
40289W        W82300  10.639  22.431   7.972
40290W        W82301   0.059  22.061  10.372
40291W        W82302  14.009   1.224   8.342
40292W        W82303   0.179   8.624   8.342
40293W        W82304  23.199   6.264  15.082
40294W        W82305  20.669  14.684   9.172
40295W        W82306  15.719  12.854   2.468
40296W        W82307   8.239   8.714   8.272
40297W        W82308   6.859   3.594  10.532
40298W        W82309  22.689  25.561  10.642
40299W        W82310   2.449  19.744   1.388
40300W        W82311  13.519  10.374   2.438
40301W        W82312   4.719   4.514   8.742
40302W        W82313  24.379  15.904   0.628
40303W        W82314  13.769  12.284   4.662
40304W        W82315  23.589   4.464   8.822
40305W        W82316  17.279  13.014   1.428
40306W        W82317  13.699   2.694   8.742
40307W        W82318  17.439  13.064   8.702
40308W        W82319   3.609   3.244   2.992
40309W        W82320  21.029   9.404   7.392
40310W        W82321  24.829  12.824   0.858
40311W        W82322  17.309   8.054   9.722
40312W        W82323  22.849  17.834  15.792
40313W        W82324   1.679  14.644  14.862
40314W        W82325  17.079  11.614   1.958
40315W        W82326  13.019   2.364   9.352
40316W        W82327  13.609  17.604   1.018
40317W        W82328  18.629  25.441  10.192
40318W        W82329  12.019   6.574  15.802
40319W        W82330  19.349   2.974   3.232
40320W        W82331   1.189   5.934  10.652
40321W        W82332  14.139  25.341   3.892
40322W        W82333  24.279  22.751  11.522
40323W        W82334   9.699  18.104  10.172
40324W        W82335   9.679   2.714   1.528
40325W        W82336  11.679  19.674   8.962
40326W        W82337   7.859  17.554   2.248
40327W        W82338   5.389  16.154  15.822
40328W        W82339  23.169  18.554   3.142
40329W        W82340   4.829  23.841   0.378
40330W        W82341   8.059   3.344   1.038
40331W        W82342  13.169  11.634  14.752
40332W        W82343   4.289  24.541   3.222
40333W        W82344   2.139  24.951   2.478
40334W        W82345  15.999  18.304   0.238
40335W        W82346   5.579  11.224   9.952
40336W        W82347  18.359   5.214   2.902
40337W        W82348   4.909  21.761  10.412
40338W        W82349  24.779  19.694  10.382
40339W        W82350   7.379   8.084  10.572
40340W        W82351   4.199   3.164  11.632
40341W        W82352  10.999   8.244   2.488
40342W        W82353  24.239  22.231   8.632
40343W        W82354  16.219   1.974   9.322
40344W        W82355   0.749   5.684   7.052
40345W        W82356   2.559   7.694   1.608
40346W        W82357   0.209  13.584   3.252
40347W        W82358  16.769   2.214  10.242
40348W        W82359  24.329  22.601   9.652
40349W        W82360  16.349   0.884  10.172
40350W        W82361   2.779  22.881   3.452
40351W        W82362  12.529   2.114   8.822
40352W        W82363  16.529  12.894   8.322
40353W        W82364   2.299  12.814  10.832
40354W        W82365   2.929  15.854   1.458
40355W        W82366  10.739   9.114  10.892
40356W        W82367   1.899   1.174   2.822
40357W        W82368  19.379   7.934   8.582
40358W        W82369  18.699   2.144   3.532
40359W        W82370   8.589  22.661   0.118
40360W        W82371  20.249   4.684  11.802
40361W        W82372  14.399  22.971   1.068
40362W        W82373  10.009  20.974   0.038
40363W        W82374  14.749  16.274   1.478
40364W        W82375  21.079  18.144  15.772
40365W        W82376  10.809   1.894  14.592
40366W        W82377   1.099  15.634   0.718
40367W        W82378  24.529  11.424   2.602
40368W        W82379   1.929   4.514   9.922
40369W        W82380  13.279  23.611   3.932
40370W        W82381  19.529  14.474  11.352
40371W        W82382   8.659  10.214   9.672
40372W        W82383   8.109   5.834   2.852
40373W        W82384  13.919  11.524  15.022
40374W        W82385  15.289  25.371  15.472
40375W        W82386  12.789  14.714  14.612
40376W        W82387  12.629   3.414  14.572
40377W        W82388   1.119   4.794   7.822
40378W        W82389  21.019  18.104   2.008
40379W        W82390   8.029   5.424   0.358
40380W        W82391  21.159  11.904   8.802
40381W        W82392   3.539  23.051   0.208
40382W        W82393  17.239   2.534   0.798
40383W        W82394  24.559  10.864   2.248
40384W        W82395  15.759  19.914   2.522
40385W        W82396   6.379   8.654  10.472
40386W        W82397  17.679  19.034   8.432
40387W        W82398  23.969  15.334   2.408
40388W        W82399  22.709  15.614   1.478
40389W        W82400   4.099  22.761  12.342
40390W        W82401  24.389  22.151   1.338
40391W        W82402  15.579  12.044   2.328
40392W        W82403  16.879  23.881   2.048
40393W        W82404  10.999   4.924   1.458
40394W        W82405  23.319  17.344   8.552
40395W        W82406   4.839   6.144   3.012
40396W        W82407  10.109  22.641   1.938
40397W        W82408  15.879  15.474   4.252
40398W        W82409  21.979  17.084  11.672
40399W        W82410  15.689  19.194   1.768
40400W        W82411  23.529   5.104   0.868
40401W        W82412  18.259  16.924   1.138
40402W        W82413  13.179  17.944   2.752
40403W        W82414  15.799  22.781   9.302
40404W        W82415  13.539  21.284   4.542
40405W        W82416  16.179  15.594   9.712
40406W        W82417  17.809  13.324  15.602
40407W        W82418  20.949   6.374  15.862
40408W        W82419  17.779  10.724   3.262
40409W        W82420   3.279  23.781  10.962
40410W        W82421  22.109   6.264   8.322
40411W        W82422  10.239  21.841   4.032
40412W        W82423  20.909  22.781   7.552
40413W        W82424  14.369  13.314  15.802
40414W        W82425  20.959  19.324   8.452
40415W        W82426   1.899  13.714   9.052
40416W        W82427   1.329  21.371  10.642
40417W        W82428  18.829   3.224   8.192
40418W        W82429  24.209   0.064   2.992
40419W        W82430  20.799  14.964   1.248
40420W        W82431   2.029  13.364  15.622
40421W        W82432  22.979  17.994   7.812
40422W        W82433   8.999  13.874  10.242
40423W        W82434   9.689  18.674   9.562
40424W        W82435  12.149  10.294   4.832
40425W        W82436  14.729  11.074  15.772
40426W        W82437  15.369  21.371  15.732
40427W        W82438  17.039   9.724   2.398
40428W        W82439   0.419  15.294  10.712
40429W        W82440  22.869  24.751   4.192
40430W        W82441   4.049  15.284   7.712
40431W        W82442  24.529   2.014   1.458
40432W        W82443  18.899  23.411   8.242
40433W        W82444   8.429  21.831   2.258
40434W        W82445  21.639   4.274   3.372
40435W        W82446  13.669   4.294   9.622
40436W        W82447  18.569   4.854   9.092
40437W        W82448  12.189  10.794   1.038
40438W        W82449   8.049  12.794   4.012
40439W        W82450   4.019   3.314  11.182
40440W        W82451   0.609   1.424   2.882
40441W        W82452  13.819   8.064   3.982
40442W        W82453   7.589  24.711   9.562
40443W        W82454   4.579   9.004   0.138
40444W        W82455   9.069   7.504  15.662
40445W        W82456  15.149  10.194   0.698
40446W        W82457  25.449   5.414   9.072
40447W        W82458   8.559  13.454   2.468
40448W        W82459   3.179  17.724   9.912
40449W        W82460  14.629  19.294   3.862
40450W        W82461  12.049  19.404   4.522
40451W        W82462   8.509  13.524   3.942
40452W        W82463  16.229  20.114   2.542
40453W        W82464   1.329  22.271  11.162
40454W        W82465   1.259  20.844  11.332
40455W        W82466   1.279  24.591   2.652
40456W        W82467  25.389   3.904   2.038
40457W        W82468   4.259  20.424   2.562
40458W        W82469  16.639  22.211   3.622
40459W        W82470  10.649  20.704  10.032
40460W        W82471  15.769   5.754   0.178
40461W        W82472   3.369   3.584   2.128
40462W        W82473   1.879  21.174  11.362
40463W        W82474   7.159  11.734   8.432
40464W        W82475  24.529   1.094  10.272
40465W        W82476   7.919  25.251  10.312
40466W        W82477  16.769   9.674   9.722
40467W        W82478   8.109  21.134  10.242
40468W        W82479   0.449  10.324  14.902
40469W        W82480  15.429  17.944  15.602
40470W        W82481   1.089   7.004  14.562
40471W        W82482  17.399   1.454   7.512
40472W        W82483   9.349  10.724  15.642
40473W        W82484   2.409   7.314   9.982
40474W        W82485   8.929  14.034   2.892
40475W        W82486  22.949  21.601   9.712
40476W        W82487   7.719  13.734   0.158
40477W        W82488   9.389   0.724   3.342
40478W        W82489  14.059   4.344  10.642
40479W        W82490  12.979  10.724   3.602
40480W        W82491   6.439   9.494  10.672
40481W        W82492   1.209   7.704  15.242
40482W        W82493  10.739  19.204   3.352
40483W        W82494  10.009  19.024  10.282
40484W        W82495  13.659  16.854  15.602
40485W        W82496  15.439  10.244  15.122
40486W        W82497  13.209  16.494   2.388
40487W        W82498  20.169   9.334   9.682
40488W        W82499   8.669   0.224  10.652
40489W        W82500   6.539   5.534   9.312
40490W        W82501  12.549  10.664   9.462
40491W        W82502  25.289  25.411   9.312
40492W        W82503  11.779   7.294  10.192
40493W        W82504  23.099  10.644   8.992
40494W        W82505   8.229   3.024  15.682
40495W        W82506  23.479  18.374   1.478
40496W        W82507   9.499  16.114   8.872
40497W        W82508   2.479  17.444   8.792
40498W        W82509  11.709   7.364   1.238
40499W        W82510   1.319   7.574   7.362
40500W        W82511   6.989  13.514   0.948
40501W        W82512  12.659   6.904   3.262
40502W        W82513   3.229  18.454   1.318
40503W        W82514  22.639  21.361   8.552
40504W        W82515   0.249   0.814   3.472
40505W        W82516   7.159  19.744   9.022
40506W        W82517  25.429   0.114   8.422
40507W        W82518  24.069  10.534  10.442
40508W        W82519  22.139  15.874   7.612
40509W        W82520  18.769   1.584  15.612
40510W        W82521  18.649  17.314  10.952
40511W        W82522  18.989   3.094   8.642
40512W        W82523   2.599  18.254   0.678
40513W        W82524   9.089  10.224  13.922
40514W        W82525   7.779  15.054   0.298
40515W        W82526   0.909  14.094   3.962
40516W        W82527   6.529  11.884   7.692
40517W        W82528  10.759   7.554   4.322
40518W        W82529   9.689  23.051   9.472
40519W        W82530   4.979  17.194  11.442
40520W        W82531  24.679  16.764   3.362
40521W        W82532  18.909   0.834  15.472
40522W        W82533  11.329  19.824   1.208
40523W        W82534  16.869  22.391   9.642
40524W        W82535  19.229   3.414   2.742
40525W        W82536   3.159  19.604   3.842
40526W        W82537  13.259  13.774   4.072
40527W        W82538   7.259   3.844   3.022
40528W        W82539  21.039  19.284  10.952
40529W        W82540   3.779  14.394   3.242
40530W        W82541  23.559  14.484  11.762
40531W        W82542  11.799  22.931  10.472
40532W        W82543  16.899  15.944  10.822
40533W        W82544  15.099  10.944   8.672
40534W        W82545  21.149  12.414   8.652
40535W        W82546   5.599  14.964   3.232
40536W        W82547  22.599  17.174   3.302
40537W        W82548  19.799   8.184   3.562
40538W        W82549  18.219  23.311   3.102
40539W        W82550  25.409  19.454  10.912
40540W        W82551  24.859  15.784   0.578
40541W        W82552  13.999  14.684  10.002
40542W        W82553  13.949  19.624   0.068
40543W        W82554  15.129  16.004   1.248
40544W        W82555  23.629  13.004   7.892
40545W        W82556  21.289   8.674  12.042
40546W        W82557   1.739  15.524   8.132
40547W        W82558  22.969   2.954   7.372
40548W        W82559   6.959  20.744   3.392
40549W        W82560   4.639   8.574   8.402
40550W        W82561   8.499  13.264   9.532
40551W        W82562   9.169  16.034   9.262
40552W        W82563  17.329  10.794   1.258
40553W        W82564   8.729  18.384  10.152
40554W        W82565  17.629  22.421   8.732
40555W        W82566  14.359   4.744   2.572
40556W        W82567   3.569  18.274   3.792
40557W        W82568   2.329  21.751   8.172
40558W        W82569  17.839   7.584  15.302
40559W        W82570  21.899  18.924   0.738
40560W        W82571   2.999   6.364   7.912
40561W        W82572   3.789  16.634   2.038
40562W        W82573  11.979   4.374  10.062
40563W        W82574  11.339   9.394   3.802
40564W        W82575  19.849  20.394   2.368
40565W        W82576  17.079   0.854   3.802
40566W        W82577  22.729  18.934   1.298
40567W        W82578  11.179   8.074   3.052
40568W        W82579   2.149  22.321   9.472
40569W        W82580  16.409  20.794   8.222
40570W        W82581  22.429  15.394   8.892
40571W        W82582  18.829   8.414   9.302
40572W        W82583  13.009  16.494   0.608
40573W        W82584  15.719  23.871   9.222
40574W        W82585   2.269   4.754   3.102
40575W        W82586  19.159  21.681   7.652
40576W        W82587  17.099  23.191  11.662
40577W        W82588   9.639   5.774   3.292
40578W        W82589  24.289   4.704   7.732
40579W        W82590   8.689   6.534   9.412
40580W        W82591   9.829  10.094  10.452
40581W        W82592  20.799  24.251   0.588
40582W        W82593  13.699  15.484   3.212
40583W        W82594   4.869   1.114  10.872
40584W        W82595  18.719   9.994   3.652
40585W        W82596   4.169   2.164   0.178
40586W        W82597   1.489  13.024  11.182
40587W        W82598  17.869  25.571   8.782
40588W        W82599  18.829   6.204   9.042
40589W        W82600   9.349   0.024   1.408
40590W        W82601  15.509   3.004   0.548
40591W        W82602  16.759  12.754   3.172
40592W        W82603  14.399   0.214   3.832
40593W        W82604   4.289   6.504   0.778
40594W        W82605  18.109  24.591  12.532
40595W        W82606   4.899   8.574  10.422
40596W        W82607  11.239  17.564   5.042
40597W        W82608  11.449  23.651   9.342
40598W        W82609   9.099  14.094   1.838
40599W        W82610  14.349  21.054   1.808
40600W        W82611  13.749   5.284  10.012
40601W        W82612  15.129  23.021   1.928
40602W        W82613  23.789   3.494  10.242
40603W        W82614   1.899  11.334   8.052
40604W        W82615  17.759   6.844   0.638
40605W        W82616   6.219  17.634  15.302
40606W        W82617  19.699   4.214   3.402
40607W        W82618   5.489  23.001   0.128
40608W        W82619   4.979   3.974   2.802
40609W        W82620  22.699  18.524   2.892
40610W        W82621   4.309   4.444  10.862
40611W        W82622   3.739   7.514  11.182
40612W        W82623   1.239  13.154   2.398
40613W        W82624   5.649  10.264   9.722
40614W        W82625  16.689  23.921   1.458
40615W        W82626  24.349  10.714  15.842
40616W        W82627   6.569  13.374   8.772
40617W        W82628   1.629  14.614  11.192
40618W        W82629   8.939   1.604   1.198
40619W        W82630   4.849  25.511   1.538
40620W        W82631   4.119   6.734   7.712
40621W        W82632   9.179   6.114   4.212
40622W        W82633   8.239  16.384   1.798
40623W        W82634  23.939   5.044   8.742
40624W        W82635  18.469  24.351   8.902
40625W        W82636  23.589  23.241  10.762
40626W        W82637  11.029  12.144   9.532
40627W        W82638   4.829   9.904  11.642
40628W        W82639  21.339   5.444   2.188
40629W        W82640  12.879   9.314  15.382
40630W        W82641  23.469   8.434   1.808
40631W        W82642  24.979   4.924   0.158
40632W        W82643  22.289  24.681   8.582
40633W        W82644  17.259   3.504  15.612
40634W        W82645   6.939  16.584   3.632
40635W        W82646   1.319  14.784   0.158
40636W        W82647  24.829   9.054   7.332
40637W        W82648   1.129  23.011   7.672
40638W        W82649  18.399   7.674   0.988
40639W        W82650  21.249  11.624   2.982
40640W        W82651   9.669   8.014   2.822
40641W        W82652  24.759  20.234  10.412
40642W        W82653  21.869   2.854  15.252
40643W        W82654   5.899  24.111  10.542
40644W        W82655   7.769  18.334   0.298
40645W        W82656  16.579  19.114  11.202
40646W        W82657   7.689  17.704   1.098
40647W        W82658  18.449  16.734   2.702
40648W        W82659  14.019  25.201   0.418
40649W        W82660  12.469  20.994  11.092
40650W        W82661   5.489   0.764  15.642
40651W        W82662  20.359  18.744  11.042
40652W        W82663   6.369   0.674   2.158
40653W        W82664  15.439  17.314  10.352
40654W        W82665  11.659  22.801   0.248
40655W        W82666  15.109   5.464   0.408
40656W        W82667  17.839   6.784   1.618
40657W        W82668  22.749  13.564  11.632
40658W        W82669  22.679   7.794   7.692
40659W        W82670  20.319   5.844   1.758
40660W        W82671  12.329   3.214   1.888
40661W        W82672   9.159  13.434   1.268
40662W        W82673  16.239   2.284  10.372
40663W        W82674   8.259   9.764  15.292
40664W        W82675  24.499  21.284   3.582
40665W        W82676  20.229  22.831   1.788
40666W        W82677   0.369  18.174   2.922
40667W        W82678   9.439   5.034  10.012
40668W        W82679   2.349  15.274  15.632
40669W        W82680  16.599  25.401  12.372
40670W        W82681  25.569   2.274  15.122
40671W        W82682  24.809  14.154  10.152
40672W        W82683  22.689  17.064   1.018
40673W        W82684  20.319  13.024  10.272
40674W        W82685   2.059  10.304   3.232
40675W        W82686   8.549  21.631   8.542
40676W        W82687   9.729  21.901   0.758
40677W        W82688  21.819  15.564  12.162
40678W        W82689  15.479   1.144   8.442
40679W        W82690   7.789   1.794   2.268
40680W        W82691   0.539  18.164   3.372
40681W        W82692  24.919  15.794   7.752
40682W        W82693  25.379   9.044   9.902
40683W        W82694   8.129  11.234  14.552
40684W        W82695   9.649  11.584   9.272
40685W        W82696  10.919  16.724   1.108
40686W        W82697  16.279   6.514  10.892
40687W        W82698  12.799  25.531  10.952
40688W        W82699   7.069  16.044  15.322
40689W        W82700   5.649   4.114   8.562
40690W        W82701   0.031  24.561  10.212
40691W        W82702  17.989  10.764   0.498
40692W        W82703   2.519   6.484  10.672
40693W        W82704   3.349  24.831   1.708
40694W        W82705   7.339   4.014   1.388
40695W        W82706   4.579   4.294   3.562
40696W        W82707  14.579   1.144   1.568
40697W        W82708   0.629   8.634   3.322
40698W        W82709  24.539  20.794   3.242
40699W        W82710  18.449   1.104   8.382
40700W        W82711   8.199  13.194   0.898
40701W        W82712  19.669  24.351   7.762
40702W        W82713  15.389   5.854  11.332
40703W        W82714  16.979  14.284  10.602
40704W        W82715  13.929  20.594   1.418
40705W        W82716  25.529  23.761   1.978
40706W        W82717   2.299  24.881   9.352
40707W        W82718   0.929   6.964   8.312
40708W        W82719  21.929  10.634  10.822
40709W        W82720   5.799  18.794   9.742
40710W        W82721   8.549  12.074  10.132
40711W        W82722  19.499  24.181   9.602
40712W        W82723  16.819  20.564   8.382
40713W        W82724  19.419  10.104   2.942
40714W        W82725  14.939  14.064   4.232
40715W        W82726   9.199   1.054  10.452
40716W        W82727  14.509   5.284   1.598
40717W        W82728   7.519   8.254   9.232
40718W        W82729   3.599  10.584   1.148
40719W        W82730   8.979  11.334   8.492
40720W        W82731   6.179  19.034   4.582
40721W        W82732   3.139  23.061   9.012
40722W        W82733  17.709   5.484   2.408
40723W        W82734   3.599   4.314   2.158
40724W        W82735  16.219   1.394   3.752
40725W        W82736   3.709   5.534   0.718
40726W        W82737   8.779  13.934   1.048
40727W        W82738   6.939  19.474   9.422
40728W        W82739   4.619  21.234   2.852
40729W        W82740  21.539  10.424  14.952
40730W        W82741  16.689  12.074   9.912
40731W        W82742  17.959  25.531   0.728
40732W        W82743  19.149   7.574   3.442
40733W        W82744  23.169  13.854   8.632
40734W        W82745   5.479  11.674   9.122
40735W        W82746  21.989   7.484   2.662
40736W        W82747  17.809   6.304   2.892
40737W        W82748   5.839  12.324   2.642
40738W        W82749   9.419   6.664   4.432
40739W        W82750  24.219  11.744  10.752
40740W        W82751  21.689   2.884   9.062
40741W        W82752   3.419  10.224   0.088
40742W        W82753   1.169   6.174  14.822
40743W        W82754   7.689  12.344   2.932
40744W        W82755  10.659   8.814  14.302
40745W        W82756  21.549  22.871   9.752
40746W        W82757   2.349   8.154   0.418
40747W        W82758  11.539   4.364  15.682
40748W        W82759  25.399  17.414   0.788
40749W        W82760  12.229   2.054   2.732
40750W        W82761  19.169   2.454  10.222
40751W        W82762   6.269  18.644   9.672
40752W        W82763  22.849  21.991  11.332
40753W        W82764   8.569   3.814   9.412
40754W        W82765   9.339  21.591   0.648
40755W        W82766  17.399   6.694   2.822
40756W        W82767  16.539  13.044   3.552
40757W        W82768  11.449   6.674   1.498
40758W        W82769   7.309  15.284   0.358
40759W        W82770  20.069  12.524  15.172
40760W        W82771  10.179   2.324   0.968
40761W        W82772  23.739  10.914  11.132
40762W        W82773   8.469  14.684   2.972
40763W        W82774   7.529  24.821   1.758
40764W        W82775   2.249  23.091   8.492
40765W        W82776   7.569   9.834   0.728
40766W        W82777  19.029  16.374   9.722
40767W        W82778   5.289   3.854  11.002
40768W        W82779  20.529  11.584   8.302
40769W        W82780  15.839  19.764  15.322
40770W        W82781  22.699   6.714  11.752
40771W        W82782  23.889  19.044  11.462
40772W        W82783  12.979  14.534  15.702
40773W        W82784   3.769   9.314   8.832
40774W        W82785  25.349   5.984   9.552
40775W        W82786  21.619  23.651   2.078
40776W        W82787  17.579   0.724   2.448
40777W        W82788   1.209  22.581  15.602
40778W        W82789  20.389  22.811   1.138
40779W        W82790   4.719   2.304  15.532
40780W        W82791  22.399   9.004  11.282
40781W        W82792   9.489  24.991   3.872
40782W        W82793  17.719  12.514   1.798
40783W        W82794  20.599   5.434  11.232
40784W        W82795  14.599  20.114   8.732
40785W        W82796  24.269   9.704   0.258
40786W        W82797  22.199  19.754   8.962
40787W        W82798  13.129  18.314  10.192
40788W        W82799   4.399   5.604   0.898
40789W        W82800   2.259  11.014   0.548
40790W        W82801  21.979  25.061   9.482
40791W        W82802   4.379  15.754  15.612
40792W        W82803  16.779  15.874   1.478
40793W        W82804  16.989  24.121   7.712
40794W        W82805  19.759  23.981   0.968
40795W        W82806   1.109  17.494   8.892
40796W        W82807   7.029  23.461  10.002
40797W        W82808  13.569   7.064   4.152
40798W        W82809  13.149   6.214   3.602
40799W        W82810   4.409  21.471   1.128
40800W        W82811  21.469  23.351  11.212
40801W        W82812  12.589   9.484   1.838
40802W        W82813  20.009  22.791   0.738
40803W        W82814   8.619  20.974   3.302
40804W        W82815  12.699  14.944   1.608
40805W        W82816  14.989  19.174   8.642
40806W        W82817  10.239  18.834   9.222
40807W        W82818  21.749  10.784   9.692
40808W        W82819  20.499   6.904   2.108
40809W        W82820   0.609   0.664   9.162
40810W        W82821   9.339   6.124   9.812
40811W        W82822   3.599   4.804   2.872
40812W        W82823  10.629  20.904   2.078
40813W        W82824   8.099  10.234  10.252
40814W        W82825  19.679  10.864   3.212
40815W        W82826   5.309  23.541  10.802
40816W        W82827  17.029   6.304   1.418
40817W        W82828  21.779  11.744  10.962
40818W        W82829   9.259  21.194   2.602
40819W        W82830   7.069  10.434  10.542
40820W        W82831  22.119  14.904   9.162
40821W        W82832  16.579   1.474   9.232
40822W        W82833  11.769  13.154   0.838
40823W        W82834   3.049  20.024  15.872
40824W        W82835   6.679  16.874  12.012
40825W        W82836   6.209  14.854   7.882
40826W        W82837  15.589  13.824   1.068
40827W        W82838  23.859   1.664   3.112
40828W        W82839  16.849   5.204   2.328
40829W        W82840  11.879  23.791  10.222
40830W        W82841  13.649   2.524   2.832
40831W        W82842   7.929  21.781   3.132
40832W        W82843   5.719  18.454  10.882
40833W        W82844  12.899   2.564   4.562
40834W        W82845  17.419   8.694   4.412
40835W        W82846  24.279  17.284  11.252
40836W        W82847  25.069  10.994  12.002
40837W        W82848  22.149  14.514   9.492
40838W        W82849   2.469  22.761  15.562
40839W        W82850  20.239  17.654  15.592
40840W        W82851  14.639  13.234  10.242
40841W        W82852  18.549   4.354   0.828
40842W        W82853  10.389  21.004   9.222
40843W        W82854   3.349  18.814   8.272
40844W        W82855  10.299  21.361   1.328
40845W        W82856  12.739  12.834   2.902
40846W        W82857  15.259  14.624   0.158
40847W        W82858  13.489  21.441   3.172
40848W        W82859   8.609  19.224   2.298
40849W        W82860  12.029   3.564   1.998
40850W        W82861  14.849   1.754  11.352
40851W        W82862  22.479  15.144   0.758
40852W        W82863   8.669   6.834  14.412
40853W        W82864  17.199  14.334   2.552
40854W        W82865   4.069  21.931   0.268
40855W        W82866  18.119  10.644  10.252
40856W        W82867  13.899   2.814   1.278
40857W        W82868  13.369  17.144  15.312
40858W        W82869   8.419   0.424   1.098
40859W        W82870  23.679  19.474  11.152
40860W        W82871  18.179  22.171   0.378
40861W        W82872  10.799  16.364  10.032
40862W        W82873  18.379   1.734   2.158
40863W        W82874   3.749  25.301   8.362
40864W        W82875  11.929  22.541  15.672
40865W        W82876   7.289   8.844   0.828
40866W        W82877   7.399   6.224  10.192
40867W        W82878  15.669   7.994   8.852
40868W        W82879   0.001  16.584   2.318
40869W        W82880  14.569  13.864   8.592
40870W        W82881  25.029   3.114   2.378
40871W        W82882   2.879   0.104   0.408
40872W        W82883   2.269  10.884  11.062
40873W        W82884  18.249  12.244   8.752
40874W        W82885  13.349   7.484   4.792
40875W        W82886   4.069   5.944  11.092
40876W        W82887   6.789   2.884   8.442
40877W        W82888  22.609   3.044   1.938
40878W        W82889  16.239   4.664   1.678
40879W        W82890  24.799   7.954   9.732
40880W        W82891   8.859   1.674   2.612
40881W        W82892  10.829  14.454   1.438
40882W        W82893   1.459   7.454   0.998
40883W        W82894   0.929   9.134  10.392
40884W        W82895  22.399   8.624   9.382
40885W        W82896   2.189  16.684   9.232
40886W        W82897  20.449   4.424   7.692
40887W        W82898  13.959   4.954   2.902
40888W        W82899  23.259   5.814  11.092
40889W        W82900  11.489  11.224  14.342
40890W        W82901  21.259   2.644   9.382
40891W        W82902   3.099  19.464   1.178
40892W        W82903   7.829  17.854   0.638
40893W        W82904  24.699   8.064   1.288
40894W        W82905  12.439  17.734   0.108
40895W        W82906   4.289  22.721   1.958
40896W        W82907  12.979   8.974  14.392
40897W        W82908  14.659  19.394   1.158
40898W        W82909  12.549  24.491  10.182
40899W        W82910   6.119  11.924   2.478
40900W        W82911   5.149  20.404   8.512
40901W        W82912  23.919   0.764   1.448
40902W        W82913   6.849  25.281   1.398
40903W        W82914   8.759  25.051   1.028
40904W        W82915  12.249  21.164  10.522
40905W        W82916  11.379  18.454   4.122
40906W        W82917   1.549   2.804   0.358
40907W        W82918  16.359  14.444   9.252
40908W        W82919  20.589   1.374  12.012
40909W        W82920  20.419   5.144  15.042
40910W        W82921  23.869  16.434  11.222
40911W        W82922   2.259  20.954  15.542
40912W        W82923  23.989  11.824   9.562
40913W        W82924   1.409  18.564   1.948
40914W        W82925   1.519  12.664   0.648
40915W        W82926  11.629  11.514   0.768
40916W        W82927   3.369  14.094   2.288
40917W        W82928  19.689  15.694  11.182
40918W        W82929   8.749   8.454  15.292
40919W        W82930  16.549   3.884   0.788
40920W        W82931  22.329   1.204  11.242
40921W        W82932   2.809   3.284  15.522
40922W        W82933  19.809   6.514   2.572
40923W        W82934  24.079  24.961   7.652
40924W        W82935   9.799   1.694   2.652
40925W        W82936   9.989  16.824   1.088
40926W        W82937   3.069   8.434   2.752
40927W        W82938  21.139  24.981   0.658
40928W        W82939  20.829   3.744   1.778
40929W        W82940  19.669   7.844   9.022
40930W        W82941  20.069   2.224   8.132
40931W        W82942  10.079  25.411   8.802
40932W        W82943   0.979   8.604   1.578
40933W        W82944  24.929  11.214   1.168
40934W        W82945  14.609  18.824   3.672
40935W        W82946  12.349  16.804  10.722
40936W        W82947  10.169  24.891  15.392
40937W        W82948  11.489  15.744   2.912
40938W        W82949  21.519   9.064  15.852
40939W        W82950  23.519  25.461  11.022
40940W        W82951  11.649  13.934  14.482
40941W        W82952  24.049  17.594   9.302
40942W        W82953   1.269  17.444   3.332
40943W        W82954   4.049   7.524   0.058
40944W        W82955  23.239   8.544   7.902
40945W        W82956   4.419   8.704   7.972
40946W        W82957  25.179  15.654   1.408
40947W        W82958   1.549   8.794   0.238
40948W        W82959  15.959  14.314  14.472
40949W        W82960  17.959  21.521   7.472
40950W        W82961   7.379  12.034  10.722
40951W        W82962  25.409  15.044   2.148
40952W        W82963  20.669  25.471   7.932
40953W        W82964  20.189  13.234  10.672
40954W        W82965   7.659   3.324   0.678
40955W        W82966  20.069  12.324   9.742
40956W        W82967  21.529   9.684   7.432
40957W        W82968   8.679   6.694   1.328
40958W        W82969  20.239   5.054   3.922
40959W        W82970   0.679  13.674   1.238
40960W        W82971   3.009  16.164   3.422
40961W        W82972  16.879   3.554   9.732
40962W        W82973  23.979   2.094   0.448
40963W        W82974   1.679   9.614   2.822
40964W        W82975  16.029  21.701  11.072
40965W        W82976  17.019  22.751  11.892
40966W        W82977  10.309  12.374   0.828
40967W        W82978  22.219  11.664  10.772
40968W        W82979  10.579  13.924   3.402
40969W        W82980   3.049  23.241   3.112
40970W        W82981  21.809  19.654   2.972
40971W        W82982  10.609  19.364  10.082
40972W        W82983  16.319  13.814   1.518
40973W        W82984  20.349  24.711   1.338
40974W        W82985  22.469   0.424   9.442
40975W        W82986   9.629  16.344   3.502
40976W        W82987  20.199  24.211   9.422
40977W        W82988   1.899  19.794   0.398
40978W        W82989  17.579  12.644   2.672
40979W        W82990  14.239  25.521   9.682
40980W        W82991  21.599   0.364   0.328
40981W        W82992   2.869   1.324   6.852
40982W        W82993  17.469  17.594   7.252
40983W        W82994   0.309   2.354   1.768
40984W        W82995  14.939   9.344   9.652
40985W        W82996   7.679  13.174   4.012
40986W        W82997   7.439   9.854   2.278
40987W        W82998   7.219  24.411   1.048
40988W        W82999   8.719  17.874  11.432
40989W        W83000  18.269  24.631   0.568
40990W        W83001  13.799   4.924  13.952
40991W        W83002  15.449  11.294   3.512
40992W        W83003   5.659   4.564   3.822
40993W        W83004  16.259  17.674   9.032
40994W        W83005  11.459  18.684   0.468
40995W        W83006  14.569  20.134   8.212
40996W        W83007  13.059  16.944   9.202
40997W        W83008  21.479   7.274   2.712
40998W        W83009   1.819   5.144   1.618
40999W        W83010   4.719  23.411   7.482
41000W        W83011  17.699  12.624   7.952
41001W        W83012  10.839   1.704   8.302
41002W        W83013  24.199  19.994   9.792
41003W        W83014  17.839   9.384  15.702
41004W        W83015   3.909   9.044   2.912
41005W        W83016   0.509   9.804   0.828
41006W        W83017  11.919   0.594  10.352
41007W        W83018  23.169   2.464   3.672
41008W        W83019  16.269  10.484   8.822
41009W        W83020   6.929   0.674  10.942
41010W        W83021  24.349  16.074  12.042
41011W        W83022  23.529  20.244   9.662
41012W        W83023  21.479   3.164  10.852
41013W        W83024  25.419   4.674   7.472
41014W        W83025  24.789  22.621   1.298
41015W        W83026  13.349   9.454  15.442
41016W        W83027   3.849   8.164   1.958
41017W        W83028  18.669  11.324   0.668
41018W        W83029  23.499  18.954   9.072
41019W        W83030   7.829   6.914  15.862
41020W        W83031  18.749   1.384   0.358
41021W        W83032  23.719  11.494   7.932
41022W        W83033  23.059   3.514  10.882
41023W        W83034   7.239   1.444   8.472
41024W        W83035   7.319   6.264   9.232
41025W        W83036  24.509  14.994   3.352
41026W        W83037   7.029   4.584   0.668
41027W        W83038   2.719   4.804   8.552
41028W        W83039  14.179  15.764   9.012
41029W        W83040  23.079  20.724   4.062
41030W        W83041   3.859  12.964   2.982
41031W        W83042   4.729   5.124  10.002
41032W        W83043  20.329  23.671  11.722
41033W        W83044  23.169  23.711   8.452
41034W        W83045  10.009   4.734   2.542
41035W        W83046   7.369  18.604   3.282
41036W        W83047   5.559   1.034   2.772
41037W        W83048  22.469  22.431   8.312
41038W        W83049  15.949  20.304   1.038
41039W        W83050   3.039  13.944  10.082
41040W        W83051  13.019   9.294   0.518
41041W        W83052   8.459  11.404   3.152
41042W        W83053  14.019   7.854   8.672
41043W        W83054   6.049   0.404   9.042
41044W        W83055  24.639   2.194  15.552
41045W        W83056  16.409   4.844  15.762
41046W        W83057   8.349  10.844   8.482
41047W        W83058  14.259  24.731   8.542
41048W        W83059  22.489  19.304   1.058
41049W        W83060   1.369  14.604   9.872
41050W        W83061  15.599   1.974   0.538
41051W        W83062   4.839   4.124  10.642
41052W        W83063  21.859  18.464   9.162
41053W        W83064  24.099   8.934   2.138
41054W        W83065   8.679   9.434  15.312
41055W        W83066   3.939  16.444   0.098
41056W        W83067  25.459  10.274   7.402
41057W        W83068   4.639  18.284   9.972
41058W        W83069   8.819   1.294   2.148
41059W        W83070  14.909  24.741  10.232
41060W        W83071  11.989   8.194   1.798
41061W        W83072   2.979   3.764   3.622
41062W        W83073   6.919   1.334   0.888
41063W        W83074  21.079   9.384  11.632
41064W        W83075  13.349  17.914   0.018
41065W        W83076  13.589  11.064  14.232
41066W        W83077  25.049  10.474  10.612
41067W        W83078  11.519   6.454   9.122
41068W        W83079  21.039   0.994   2.762
41069W        W83080  12.529  11.824  15.472
41070W        W83081   4.369  21.771  10.632
41071W        W83082  12.939  18.334   4.772
41072W        W83083   0.439   4.534   1.898
41073W        W83084   0.889  13.944   0.708
41074W        W83085  17.449  17.384   1.348
41075W        W83086  15.199   4.404   1.658
41076W        W83087   9.809  23.661  10.332
41077W        W83088   4.659  25.071   9.412
41078W        W83089   2.949   5.554   9.752
41079W        W83090  13.969   5.404   3.152
41080W        W83091  15.119   4.504  10.492
41081W        W83092  15.489  12.734  15.582
41082W        W83093   3.389   5.154   9.532
41083W        W83094  22.139  11.464   2.872
41084W        W83095   8.589  22.171   1.018
41085W        W83096  17.099  25.061   7.552
41086W        W83097  10.429   9.424  13.932
41087W        W83098   3.469  23.531   3.312
41088W        W83099  11.179  10.424   9.432
41089W        W83100  13.599   3.974  15.402
41090W        W83101  10.419  17.454   4.312
41091W        W83102  20.839   4.484  11.022
41092W        W83103  21.819   1.664  10.482
41093W        W83104   9.119   0.554   9.592
41094W        W83105   0.759   6.704   1.128
41095W        W83106  13.539   0.294   1.918
41096W        W83107  15.039   1.724  10.002
41097W        W83108   7.429  16.184  10.532
41098W        W83109   6.529  16.334  10.452
41099W        W83110   4.969  23.061   1.498
41100W        W83111  23.209   8.804   7.452
41101W        W83112  21.759   5.274   0.698
41102W        W83113   0.539   4.234  11.072
41103W        W83114  17.679   3.004   3.602
41104W        W83115  17.139  25.091   8.122
41105W        W83116   8.709  19.684  10.382
41106W        W83117  17.879  12.074   9.992
41107W        W83118  19.909   9.044   3.182
41108W        W83119  12.829  23.981   0.138
41109W        W83120  23.259   4.684   8.052
41110W        W83121   6.339  13.734   1.678
41111W        W83122  16.239   7.694  10.262
41112W        W83123  21.449  22.901   0.988
41113W        W83124   0.059  11.694   1.668
41114W        W83125   2.159  10.154  15.602
41115W        W83126   9.829  18.194  15.592
41116W        W83127   1.639  23.471   9.232
41117W        W83128  10.659  25.281  10.362
41118W        W83129   6.669  23.801   0.478
41119W        W83130   7.269  24.171   2.682
41120W        W83131  16.369  18.564   8.712
41121W        W83132  14.619  14.974   2.922
41122W        W83133  18.559  12.104   7.572
41123W        W83134   7.759   1.824   9.762
41124W        W83135  11.059  12.904   2.982
41125W        W83136  19.879  23.791   3.362
41126W        W83137  20.739  14.104  11.582
41127W        W83138  24.999   4.134  10.262
41128W        W83139  16.059   6.494  10.382
41129W        W83140  11.589  14.544   0.928
41130W        W83141   4.179  14.764  11.012
41131W        W83142   5.049  17.024   3.332
41132W        W83143  25.139   5.654   7.662
41133W        W83144   0.389  24.111   1.798
41134W        W83145   7.319  24.531  10.742
41135W        W83146  23.149  22.491  10.612
41136W        W83147   2.739  18.094   2.048
41137W        W83148  22.859  17.494   8.672
41138W        W83149  11.959   8.084  11.102
41139W        W83150   7.859   8.544   8.522
41140W        W83151  11.399   3.204   9.762
41141W        W83152  14.159  23.231   9.632
41142W        W83153  22.079  10.374   7.242
41143W        W83154  18.019  17.164   0.028
41144W        W83155  21.229  17.684  10.512
41145W        W83156  12.989  21.601  10.492
41146W        W83157   2.109  15.154   9.492
41147W        W83158  10.369  17.514  14.802
41148W        W83159   1.729   8.384   1.128
41149W        W83160  15.719   1.214  10.482
41150W        W83161   2.609  25.161  15.702
41151W        W83162   5.489  22.851   8.682
41152W        W83163  15.019  11.014   4.182
41153W        W83164  10.469   2.804  10.962
41154W        W83165   1.759  19.674  11.032
41155W        W83166  18.929  21.751   3.042
41156W        W83167   4.999  15.104   8.522
41157W        W83168  17.889   4.294   9.212
41158W        W83169   4.219  16.764  11.232
41159W        W83170   2.989   4.364   2.862
41160W        W83171   9.749  11.344   2.522
41161W        W83172   8.009  22.001   4.182
41162W        W83173  11.369  19.864   0.488
41163W        W83174  14.609  12.124   2.368
41164W        W83175   7.629   6.624  14.722
41165W        W83176   3.249   8.034  15.622
41166W        W83177  16.269  15.274   1.188
41167W        W83178   1.149  25.491  10.222
41168W        W83179  13.179  18.584   0.538
41169W        W83180  16.559  16.964   8.102
41170W        W83181   1.389  24.811  11.502
41171W        W83182  12.519  25.431   1.008
41172W        W83183  16.829   1.244   0.858
41173W        W83184  13.479  12.954   2.612
41174W        W83185  15.119  17.694  11.002
41175W        W83186  20.679  22.251   0.208
41176W        W83187  25.389  24.041   3.422
41177W        W83188  17.439  21.371  11.822
41178W        W83189  17.459  18.374   2.248
41179W        W83190  15.189   3.734   9.862
41180W        W83191  10.909  18.684   1.528
41181W        W83192  11.739  16.014   9.942
41182W        W83193   9.129  24.261   2.018
41183W        W83194  21.319   6.794  15.562
41184W        W83195   6.909   5.514   1.558
41185W        W83196  13.349  23.251   1.328
41186W        W83197   8.499  24.531   3.442
41187W        W83198   1.289   2.514  10.102
41188W        W83199  20.279  24.841   8.682
41189W        W83200  16.629   3.214   1.728
41190W        W83201  14.809   0.784   7.952
41191W        W83202  10.719  14.354   1.968
41192W        W83203  25.489  24.271   1.688
41193W        W83204   8.229  16.854   1.718
41194W        W83205  18.929  22.891   2.542
41195W        W83206   6.659  17.194   0.818
41196W        W83207  15.939   7.384   2.702
41197W        W83208  17.019  19.804   3.002
41198W        W83209   2.439  15.374  10.232
41199W        W83210   6.749  11.864   8.772
41200W        W83211  25.309  17.394   1.298
41201W        W83212  19.329  16.064   7.572
41202W        W83213  16.939   7.824   3.482
41203W        W83214  22.829  23.041   9.062
41204W        W83215   7.939  22.391   9.822
41205W        W83216  15.679   5.884   9.922
41206W        W83217  16.709  20.674  11.292
41207W        W83218  16.149  18.754  11.982
41208W        W83219   7.259   1.944   2.238
41209W        W83220  16.349  23.241   1.448
41210W        W83221   6.729  12.654   8.202
41211W        W83222  12.779  14.444   1.858
41212W        W83223   8.309  18.344   1.408
41213W        W83224  22.659   6.244   9.832
41214W        W83225   9.379  19.484   8.642
41215W        W83226  19.399  25.031   9.852
41216W        W83227   3.199   1.954   3.162
41217W        W83228   6.099  17.834   0.718
41218W        W83229   9.369  24.761   7.792
41219W        W83230  15.029   4.044   2.992
41220W        W83231  12.879   2.574   7.512
41221W        W83232  24.939  18.814   8.482
41222W        W83233  21.589   8.484  11.702
41223W        W83234  17.309  25.541   1.438
41224W        W83235  24.209   4.234   3.022
41225W        W83236   4.919  25.501   9.302
41226W        W83237   5.799  23.501  11.272
41227W        W83238  19.789   3.564   0.778
41228W        W83239  13.829  15.234   2.742
41229W        W83240   5.429   8.774   0.518
41230W        W83241  24.619  17.864   9.202
41231W        W83242   0.799   7.274   7.452
41232W        W83243  12.839  16.894   0.268
41233W        W83244  25.369  12.294   3.752
41234W        W83245  16.859  19.264  15.492
41235W        W83246  20.269  15.404   9.652
41236W        W83247   9.709  21.431   0.958
41237W        W83248  21.509  13.974   0.158
41238W        W83249  16.849   9.534   0.778
41239W        W83250  13.379   4.524   0.338
41240W        W83251   2.999  21.811   0.548
41241W        W83252  16.529   5.654   3.092
41242W        W83253  19.379   2.274  15.042
41243W        W83254   2.759  13.884   7.882
41244W        W83255  23.499   5.784   7.842
41245W        W83256  10.099   3.314   7.972
41246W        W83257   3.029  16.314   1.298
41247W        W83258   5.849  12.594   1.618
41248W        W83259  10.049  18.374   9.052
41249W        W83260  12.719  24.901   1.798
41250W        W83261   7.449  15.244   7.842
41251W        W83262   8.269  18.164   4.272
41252W        W83263  15.799  17.094   9.672
41253W        W83264   5.469  14.204   3.472
41254W        W83265  23.139   4.624   9.042
41255W        W83266  25.459  16.214   2.722
41256W        W83267  16.919   3.894   9.322
41257W        W83268  15.599   1.594   1.918
41258W        W83269   4.799  24.651   9.162
41259W        W83270  24.559  21.811   2.942
41260W        W83271   0.959   8.074   1.448
41261W        W83272  23.049   0.784  11.072
41262W        W83273   1.919   6.594   1.138
41263W        W83274  17.409   8.734  15.642
41264W        W83275   3.219   7.164   1.328
41265W        W83276   9.119   3.204   3.902
41266W        W83277  15.989   0.904  11.372
41267W        W83278  24.689  18.914   0.758
41268W        W83279   8.529  18.694   3.052
41269W        W83280  18.079  10.064  14.792
41270W        W83281   8.749   9.714   3.762
41271W        W83282  23.509  10.244   7.872
41272W        W83283   9.689   8.064   2.288
41273W        W83284  12.519   4.504  10.032
41274W        W83285  23.579  11.654   1.308
41275W        W83286  14.439  14.294  15.812
41276W        W83287  20.479   9.934   8.832
41277W        W83288   6.489   3.164   9.382
41278W        W83289  20.449  13.174   3.252
41279W        W83290  16.019  10.464   7.852
41280W        W83291  19.499  15.504   9.692
41281W        W83292  12.679  20.004  14.942
41282W        W83293  21.269   1.514   2.742
41283W        W83294  15.449  15.054   0.478
41284W        W83295  21.489  16.544   2.208
41285W        W83296  10.929  13.694  15.562
41286W        W83297   3.699  18.194   1.398
41287W        W83298  18.209  10.474  14.522
41288W        W83299  21.379   2.784  15.352
41289W        W83300   5.059  17.874  14.992
41290W        W83301   9.529   9.494   1.888
41291W        W83302  19.069  13.774  15.822
41292W        W83303   6.969   4.354   8.212
41293W        W83304  14.569  19.684   3.122
41294W        W83305  11.319   2.394   1.598
41295W        W83306  19.229  14.814  10.402
41296W        W83307  23.459   2.894  15.062
41297W        W83308  10.069  22.011   1.418
41298W        W83309  13.509  17.494  10.232
41299W        W83310  23.629  11.414   2.278
41300W        W83311  14.269  21.911   3.722
41301W        W83312  16.599  22.471   2.378
41302W        W83313   4.459  11.344  10.282
41303W        W83314  11.409   8.784   0.038
41304W        W83315  18.619  12.144   8.322
41305W        W83316  12.769   5.784  11.442
41306W        W83317  21.479  23.711  10.812
41307W        W83318  18.949  17.124  12.232
41308W        W83319   0.229  16.284   8.092
41309W        W83320   4.239  23.971   1.958
41310W        W83321  17.489   4.444   2.458
41311W        W83322   7.299  20.894  10.222
41312W        W83323   9.349   1.834   3.552
41313W        W83324  22.039   1.114   8.282
41314W        W83325  18.289   3.414  10.652
41315W        W83326   9.879   4.424   1.678
41316W        W83327   2.319  23.191   4.012
41317W        W83328  21.729  19.324  15.732
41318W        W83329  21.799  15.374   7.622
41319W        W83330  16.719  20.794   9.602
41320W        W83331  20.239   7.354   8.152
41321W        W83332  23.399  19.894   8.672
41322W        W83333  11.969  12.004   2.502
41323W        W83334   8.709   6.154   1.218
41324W        W83335   4.929  12.544   8.462
41325W        W83336   0.209   2.734   9.472
41326W        W83337  14.599   6.394   2.468
41327W        W83338  21.639  22.421  15.722
41328W        W83339  14.339  13.834   9.452
41329W        W83340  12.679   7.574  14.702
41330W        W83341  11.339  17.294  10.572
41331W        W83342   9.449  19.094  14.742
41332W        W83343  21.339  25.131  10.692
41333W        W83344  20.409   4.834  11.282
41334W        W83345  19.679  13.014  10.992
41335W        W83346  20.499  13.944   1.738
41336W        W83347   5.189  15.294   0.188
41337W        W83348   1.089  14.614   7.732
41338W        W83349   5.009   8.774   1.068
41339W        W83350  21.269  24.561   8.602
41340W        W83351  17.449   8.374   2.542
41341W        W83352  18.539   4.894  15.822
41342W        W83353  23.079   9.464   2.208
41343W        W83354  10.239  10.564  14.682
41344W        W83355   7.329  12.894   1.108
41345W        W83356  20.449  19.684  10.872
41346W        W83357   3.369  23.661   0.918
41347W        W83358  19.959  10.634  10.982
41348W        W83359   1.329  23.841   9.592
41349W        W83360  15.329  12.564   1.308
41350W        W83361  21.249  19.754   9.952
41351W        W83362  21.619  25.411  12.192
41352W        W83363  22.789   2.524   9.052
41353W        W83364   1.789   2.354   0.648
41354W        W83365  22.449   4.694   7.502
41355W        W83366  20.819   3.464   1.258
41356W        W83367  11.769   0.004   1.828
41357W        W83368   9.959  14.564   0.298
41358W        W83369  17.779  17.264   8.752
41359W        W83370  14.229   5.144   1.188
41360W        W83371  16.279   4.234   0.538
41361W        W83372  11.489   7.064   1.848
41362W        W83373   9.909   3.334   9.032
41363W        W83374   1.929  22.281   8.812
41364W        W83375  16.799  19.624   3.822
41365W        W83376  19.049  15.594  12.512
41366W        W83377   5.119  18.614   9.212
41367W        W83378  18.239  16.124   9.172
41368W        W83379  16.279  11.374   2.922
41369W        W83380   2.879   1.564  10.502
41370W        W83381  22.019   6.204   2.148
41371W        W83382  18.739   2.324   0.258
41372W        W83383  14.539   8.964   1.308
41373W        W83384  12.699  23.511   4.172
41374W        W83385  18.949   0.204  10.332
41375W        W83386  23.269  23.571   9.912
41376W        W83387  16.239   3.034   8.532
41377W        W83388   7.389  17.014   8.252
41378W        W83389   5.699  20.624   0.258
41379W        W83390  22.639   9.394   0.968
41380W        W83391   4.249  18.514   2.448
41381W        W83392  15.839   0.914  15.842
41382W        W83393  13.319   8.494   9.972
41383W        W83394   5.949  21.371   4.242
41384W        W83395  22.389  14.164  12.222
41385W        W83396  17.449   5.414   0.558
41386W        W83397  10.529   2.834   9.642
41387W        W83398  25.369   1.644  12.222
41388W        W83399  20.719   0.994  11.682
41389W        W83400   5.839  21.411   8.942
41390W        W83401  14.319   2.154   7.932
41391W        W83402   6.349   2.034   2.488
41392W        W83403   0.769   6.474   7.652
41393W        W83404  18.039  19.454   9.002
41394W        W83405  17.809   2.614  11.842
41395W        W83406   5.439  17.774   0.218
41396W        W83407   9.189  12.244  10.582
41397W        W83408  20.519  17.914  12.212
41398W        W83409  18.289  15.064  10.252
41399W        W83410   0.159  17.434   2.278
41400W        W83411   5.379   3.094   1.598
41401W        W83412   4.019  23.391  11.252
41402W        W83413  24.179  20.884   1.388
41403W        W83414   0.089  20.344  10.102
41404W        W83415  14.309  21.911   0.308
41405W        W83416   3.469  24.421   2.562
41406W        W83417   0.899  17.904   8.132
41407W        W83418  15.599   9.904   9.002
41408W        W83419   8.529  17.174   1.198
41409W        W83420  23.049  19.824   1.648
41410W        W83421  19.309   0.084   8.972
41411W        W83422   9.129   0.454   0.038
41412W        W83423  17.809  16.194   1.598
41413W        W83424  25.009   1.094  11.142
41414W        W83425  18.659  20.074   9.592
41415W        W83426  13.019  10.214   2.318
41416W        W83427   9.479   6.714   1.638
41417W        W83428   0.139  20.944  10.172
41418W        W83429  16.149  10.014  15.052
41419W        W83430   3.749   7.524   0.538
41420W        W83431   8.959  20.924  10.722
41421W        W83432   6.969  21.174   0.118
41422W        W83433   8.839  14.894   2.208
41423W        W83434  18.179  16.864  11.722
41424W        W83435   0.119   9.894   0.198
41425W        W83436   8.589  19.734   2.498
41426W        W83437  13.929   3.564   3.962
41427W        W83438  10.509   9.274   9.402
41428W        W83439   8.419   8.454   3.002
41429W        W83440  17.029   8.464   4.332
41430W        W83441   9.439   1.514   0.878
41431W        W83442  14.539   8.724  10.562
41432W        W83443  19.189   4.794   8.592
41433W        W83444   8.939  22.681   9.212
41434W        W83445  11.749   5.754  15.422
41435W        W83446  12.889  11.774   3.172
41436W        W83447  19.709   1.434   8.382
41437W        W83448   5.369   5.024  10.362
41438W        W83449  17.069  22.321   2.458
41439W        W83450  17.169  19.024  15.072
41440W        W83451  23.399   4.364   1.978
41441W        W83452  20.689   6.504   8.312
41442W        W83453  14.909   8.914   9.282
41443W        W83454  17.499   5.914   2.088
41444W        W83455   4.259  24.661  10.182
41445W        W83456   8.899  11.784  15.182
41446W        W83457   6.229   2.164   8.322
41447W        W83458   2.959  10.184   2.218
41448W        W83459   1.619  18.914  11.332
41449W        W83460   0.729  11.854   3.382
41450W        W83461  15.109  16.594  15.842
41451W        W83462  18.509   3.834   3.052
41452W        W83463   8.359   1.704   2.308
41453W        W83464  12.499  19.234   1.458
41454W        W83465   2.399   6.184   9.372
41455W        W83466  25.409   1.994   2.982
41456W        W83467  17.429   3.274   2.542
41457W        W83468  13.589   5.304   2.672
41458W        W83469  15.619  15.324   3.692
41459W        W83470  23.409  22.591   8.242
41460W        W83471  17.789  15.324   9.022
41461W        W83472  15.909   5.014  15.292
41462W        W83473   4.529  25.591   1.988
41463W        W83474  21.759   8.754   6.922
41464W        W83475  17.789  15.974   8.292
41465W        W83476  15.339  10.134  13.792
41466W        W83477   7.499  14.634   8.652
41467W        W83478  20.339  17.284   8.462
41468W        W83479  24.259  18.704   2.368
41469W        W83480  16.689  11.784   9.352
41470W        W83481  17.729  21.721  10.202
41471W        W83482  16.269  13.184   0.028
41472W        W83483   0.689  12.634   3.992
41473W        W83484  12.799   7.464   0.108
41474W        W83485  24.809  23.851   8.882
41475W        W83486   9.749  14.514   9.352
41476W        W83487   5.589  22.481   0.208
41477W        W83488  19.719  21.761   2.288
41478W        W83489   9.479  11.104  10.582
41479W        W83490  14.399   3.514   0.188
41480W        W83491  25.019   6.254   6.892
41481W        W83492   7.259  16.444  15.092
41482W        W83493   1.279  24.691   1.138
41483W        W83494  15.309  17.914   0.388
41484W        W83495   7.789  22.441   1.868
41485W        W83496  13.159  18.044   0.748
41486W        W83497  20.529   2.424   9.812
41487W        W83498  19.959  17.254  15.512
41488W        W83499   8.849  24.791   3.222
41489W        W83500   4.789  12.194   9.202
41490W        W83501   0.669  10.704   3.402
41491W        W83502  10.389   4.474   9.002
41492W        W83503  11.219  22.271   1.918
41493W        W83504   7.019  13.224   1.408
41494W        W83505   6.469   4.454   9.712
41495W        W83506   0.089  21.831   3.492
41496W        W83507  23.709   3.964   7.532
41497W        W83508  14.819  21.541  12.122
41498W        W83509  15.409  11.044  14.472
41499W        W83510  15.119  21.114   9.582
41500W        W83511  20.259   7.264   3.052
41501W        W83512   7.699  16.724   2.018
41502W        W83513  24.829   2.604   7.252
41503W        W83514  24.179  24.381   0.478
41504W        W83515  25.299   4.424  10.662
41505W        W83516  17.289  16.484   9.592
41506W        W83517   5.169   7.684   6.742
41507W        W83518  22.389   4.664   1.698
41508W        W83519  19.099  16.244   0.088
41509W        W83520  14.459   3.274   2.218
41510W        W83521   2.829  12.964   8.182
41511W        W83522  13.739  17.204   8.172
41512W        W83523  24.579  14.084  11.652
41513W        W83524   3.959   0.684  15.432
41514W        W83525  12.079   0.184  10.572
41515W        W83526   2.579  21.174   3.632
41516W        W83527   0.669   6.054   9.562
41517W        W83528  10.179   6.724   0.898
41518W        W83529  11.949  16.034   3.662
41519W        W83530  22.509  22.561   7.832
41520W        W83531  17.889  13.904   2.218
41521W        W83532  18.379  13.854   1.938
41522W        W83533  17.569  20.844  15.582
41523W        W83534  15.659  25.011   3.172
41524W        W83535  13.929  24.281  10.512
41525W        W83536  15.819   0.674   8.932
41526W        W83537   5.779   0.534   7.492
41527W        W83538  14.699  22.351   1.518
41528W        W83539   3.609  23.801   8.372
41529W        W83540  14.449  16.514   9.882
41530W        W83541  18.659  16.604   3.622
41531W        W83542   1.199   2.814   0.758
41532W        W83543  14.279  15.254  14.962
41533W        W83544   2.659  14.874   2.712
41534W        W83545   2.789   8.034   2.572
41535W        W83546  21.109   8.094  10.592
41536W        W83547  22.639  25.521   9.342
41537W        W83548   8.489  13.824   9.712
41538W        W83549   8.629   6.984   9.652
41539W        W83550  16.139   9.144   0.618
41540W        W83551  24.489   4.164   2.602
41541W        W83552   3.959   9.334   9.942
41542W        W83553  25.049  12.184  14.962
41543W        W83554   4.009  14.834   2.448
41544W        W83555   8.389  22.261   9.152
41545W        W83556  21.369  23.961   7.782
41546W        W83557  11.089  11.884   4.292
41547W        W83558   9.499   7.954   7.532
41548W        W83559  13.759  22.381   1.148
41549W        W83560  18.199  10.144   1.388
41550W        W83561   3.329  16.084   9.782
41551W        W83562   1.549   4.704   0.778
41552W        W83563  19.859   4.514   1.228
41553W        W83564   2.479  16.464   0.438
41554W        W83565  22.299  23.941   9.772
41555W        W83566  22.659  11.634   2.862
41556W        W83567  17.849   3.464   1.428
41557W        W83568   9.309   7.254   1.538
41558W        W83569   3.209   7.354   9.622
41559W        W83570  11.189  22.921   8.452
41560W        W83571  20.819  17.774   1.198
41561W        W83572   4.399   1.494   0.778
41562W        W83573   5.139   3.004   8.242
41563W        W83574   2.389   3.574   2.982
41564W        W83575   0.449   7.764  15.632
41565W        W83576  11.079   4.794   2.652
41566W        W83577  19.119   2.264   1.698
41567W        W83578   1.759  13.454   0.308
41568W        W83579  15.169   5.334   9.322
41569W        W83580   4.819  20.054   1.048
41570W        W83581   3.129  25.501  10.792
41571W        W83582   3.719   4.774   8.422
41572W        W83583  22.219  20.044   9.632
41573W        W83584   2.169   1.394   7.062
41574W        W83585  22.439  18.994  12.202
41575W        W83586   2.509   4.804   3.642
41576W        W83587  21.679  11.614   8.212
41577W        W83588  12.729   3.784   0.648
41578W        W83589  15.229   9.174   8.932
41579W        W83590  23.289  12.194  15.022
41580W        W83591   1.579  20.314   2.682
41581W        W83592   0.599  14.034   1.608
41582W        W83593  23.869   0.604   3.662
41583W        W83594  23.529   0.474   9.792
41584W        W83595  11.319  21.921  10.162
41585W        W83596  20.909  23.581   2.642
41586W        W83597   5.609   7.894   1.898
41587W        W83598  21.999   8.124   2.962
41588W        W83599  22.739   4.784   2.028
41589W        W83600  23.109  25.371  12.012
41590W        W83601  12.599  15.434  14.202
41591W        W83602  21.509   5.974   9.752
41592W        W83603  12.179  17.854   4.122
41593W        W83604   5.319   2.864   9.202
41594W        W83605  16.189   5.264   4.042
41595W        W83606   9.059   9.214   3.902
41596W        W83607  23.619  24.191   9.152
41597W        W83608   3.249  19.594   8.772
41598W        W83609  18.289   3.364   1.688
41599W        W83610   2.619  21.401   7.942
41600W        W83611   4.159  15.524   9.792
41601W        W83612   2.889  18.244   8.992
41602W        W83613  14.269   4.894   9.202
41603W        W83614  23.269  23.191   8.662
41604W        W83615  13.119   2.684  14.802
41605W        W83616   8.759  10.884   8.112
41606W        W83617  11.879  16.164   4.172
41607W        W83618  21.199   4.304   2.542
41608W        W83619  18.329  22.961   3.452
41609W        W83620  22.509   6.074  10.292
41610W        W83621  13.559   2.934   2.532
41611W        W83622  19.789  14.564   0.318
41612W        W83623  24.709  12.714  11.112
41613W        W83624  14.559  22.471  11.862
41614W        W83625  12.879  13.184  15.802
41615W        W83626  19.739  16.194   9.122
41616W        W83627  23.909  21.681   0.718
41617W        W83628  15.139  25.091   8.942
41618W        W83629  16.829   8.304   9.582
41619W        W83630  19.989   6.084   9.782
41620W        W83631  10.229  19.604   0.308
41621W        W83632   6.159  20.284   7.732
41622W        W83633  14.119  20.094   9.682
41623W        W83634  22.429   2.914  11.872
41624W        W83635  24.359   1.614   1.138
41625W        W83636  24.839   3.664   3.142
41626W        W83637  23.879  12.104   9.972
41627W        W83638   7.699  19.594   3.392
41628W        W83639   0.799   2.224   9.092
41629W        W83640   5.649  23.621   2.632
41630W        W83641  10.659   3.344  14.612
41631W        W83642  25.539   3.194  10.442
41632W        W83643   6.089   6.424   2.308
41633W        W83644  24.349   8.434   2.562
41634W        W83645  16.839   6.674   0.358
41635W        W83646   5.339  12.524   0.838
41636W        W83647  21.849  23.241  11.542
41637W        W83648  13.069  13.104   4.822
41638W        W83649  20.579  17.174   9.362
41639W        W83650  18.849   8.754   8.802
41640W        W83651  18.659   0.134  12.122
41641W        W83652  23.439  18.264  11.082
41642W        W83653  20.059  25.101   3.172
41643W        W83654  11.839  15.504  15.252
41644W        W83655   0.889  25.431   0.568
41645W        W83656   6.069   8.154   1.698
41646W        W83657   7.189   7.134   7.962
41647W        W83658   3.439   2.524   0.078
41648W        W83659   3.889  15.474   1.988
41649W        W83660   5.349  25.451   9.012
41650W        W83661  23.679  15.804   0.668
41651W        W83662   5.659  17.424  15.122
41652W        W83663   8.299  11.994  15.252
41653W        W83664   9.239   9.684   2.992
41654W        W83665  20.649  19.374   1.808
41655W        W83666   5.029  21.194   9.562
41656W        W83667  21.639  19.424   3.472
41657W        W83668  14.289   0.664   3.292
41658W        W83669  21.919   6.704   9.952
41659W        W83670  19.939   1.024   3.452
41660W        W83671  12.129  19.224   2.792
41661W        W83672   4.539   3.224   9.542
41662W        W83673  19.979  14.724   7.172
41663W        W83674  10.339  17.954   9.862
41664W        W83675  24.719  11.994  10.052
41665W        W83676  13.949   3.634  14.722
41666W        W83677  11.889  11.984   1.478
41667W        W83678  25.519  17.914   3.902
41668W        W83679   7.379  11.234   0.398
41669W        W83680  10.269   2.874   2.652
41670W        W83681   2.189   2.334   7.272
41671W        W83682  14.649  20.294   0.248
41672W        W83683  22.059  22.361   3.302
41673W        W83684   2.999  13.934  15.602
41674W        W83685  13.919  21.411   1.358
41675W        W83686  14.489  25.041   3.742
41676W        W83687  23.859   6.864   0.328
41677W        W83688  12.089  25.281  10.372
41678W        W83689   2.079  23.921   8.612
41679W        W83690  16.299  20.344   0.658
41680W        W83691   8.439   5.644  15.452
41681W        W83692  10.239   4.234   8.542
41682W        W83693  16.009  17.924   9.772
41683W        W83694   0.099   6.964   2.368
41684W        W83695  25.109  23.291   8.202
41685W        W83696   1.499  11.174   2.368
41686W        W83697   5.189  25.511  10.592
41687W        W83698   6.749   6.064   0.688
41688W        W83699   6.269   7.054   8.952
41689W        W83700   4.969  13.964   1.668
41690W        W83701   4.369   6.544   9.832
41691W        W83702   5.569  17.934   0.738
41692W        W83703   8.329  22.181   9.632
41693W        W83704  17.509  19.944   3.042
41694W        W83705  10.099  18.214   3.802
41695W        W83706   8.069  18.364   9.452
41696W        W83707   5.269   1.154  10.022
41697W        W83708   8.679  24.381  10.352
41698W        W83709   4.679   1.494   2.582
41699W        W83710  23.689   9.184  11.742
41700W        W83711  12.889   6.944  10.112
41701W        W83712  19.679  19.024   3.412
41702W        W83713   7.799   5.954   0.498
41703W        W83714   6.599  24.211  11.322
41704W        W83715  11.279   4.494  15.282
41705W        W83716   9.749   1.534   0.388
41706W        W83717  14.709  15.414   8.512
41707W        W83718  22.219   2.734   1.978
41708W        W83719   7.449  16.214   0.778
41709W        W83720  13.759  11.354   3.542
41710W        W83721   8.639   3.944   8.842
41711W        W83722   3.529   8.884  10.552
41712W        W83723  11.399  14.594   4.582
41713W        W83724  19.649   9.664   8.782
41714W        W83725  25.259  20.294   3.312
41715W        W83726   6.279  21.841  15.782
41716W        W83727  10.039  19.904   8.882
41717W        W83728  23.009  24.571  15.802
41718W        W83729  24.199  22.471   3.102
41719W        W83730  11.649   9.994   1.198
41720W        W83731   1.729   0.114   9.382
41721W        W83732  21.789  15.774  15.162
41722W        W83733   1.459  12.054   9.242
41723W        W83734  14.809  22.651   3.682
41724W        W83735  19.219  14.564   8.202
41725W        W83736   7.209  14.384   2.148
41726W        W83737  15.949  12.064  15.542
41727W        W83738   3.019  15.384   0.308
41728W        W83739   0.079  10.604   0.828
41729W        W83740   0.309   1.064   8.812
41730W        W83741   8.589  12.854   1.828
41731W        W83742  20.209  19.014  11.452
41732W        W83743   4.689  13.124  10.312
41733W        W83744   7.629  14.774   7.962
41734W        W83745  23.629   7.264   0.048
41735W        W83746   5.039  23.011  15.732
41736W        W83747   6.209  20.624   3.802
41737W        W83748   2.719  17.844   3.512
41738W        W83749   0.509  23.661   0.508
41739W        W83750  23.199  12.544   9.452
41740W        W83751  25.039   5.504   1.238
41741W        W83752  18.139  20.144   3.612
41742W        W83753  22.289  15.904   1.358
41743W        W83754  11.249   3.184   7.582
41744W        W83755  23.059  19.174   0.958
41745W        W83756  23.659   2.204   1.638
41746W        W83757   1.109  18.084  15.552
41747W        W83758  15.459   6.164  14.162
41748W        W83759  20.329  20.894   8.152
41749W        W83760   4.479  11.344   9.762
41750W        W83761   7.169  23.111   9.532
41751W        W83762  22.129  20.394   2.602
41752W        W83763  10.709   8.934   4.762
41753W        W83764  18.029   1.944  11.202
41754W        W83765  21.769  15.534   9.852
41755W        W83766   1.179   5.474   9.882
41756W        W83767   3.139   8.994   9.942
41757W        W83768  10.359  21.381  10.862
41758W        W83769  19.529  25.061   2.562
41759W        W83770  19.919  11.054  10.202
41760W        W83771   3.829  13.804   9.942
41761W        W83772  18.479  23.451   8.592
41762W        W83773  17.529  24.821   8.232
41763W        W83774  19.759   6.834   3.162
41764W        W83775  10.699  24.481  10.162
41765W        W83776  23.109  14.254   3.962
41766W        W83777  23.569  14.354   2.188
41767W        W83778  17.749  12.084   9.512
41768W        W83779  22.909   8.694   8.372
41769W        W83780  10.979  20.334  15.452
41770W        W83781   3.319  20.544  10.642
41771W        W83782   1.329  16.434  10.402
41772W        W83783   8.779  14.044   0.158
41773W        W83784  19.939  16.204   9.742
41774W        W83785  23.689   3.834   9.382
41775W        W83786   5.569  13.964   0.598
41776W        W83787   9.549  16.654   1.988
41777W        W83788   3.609  16.774   9.062
41778W        W83789  15.279   1.674   4.222
41779W        W83790  14.229   9.094   2.418
41780W        W83791   7.649   3.554   8.052
41781W        W83792   4.029  17.634   8.922
41782W        W83793  24.269   3.464   9.952
41783W        W83794  20.039   5.274   9.972
41784W        W83795   3.719   8.504   0.478
41785W        W83796  18.859   5.944   3.012
41786W        W83797  11.329  24.201   9.492
41787W        W83798  24.849  20.314   7.202
41788W        W83799  15.599  20.974   2.582
41789W        W83800  23.069  16.154   3.562
41790W        W83801  16.629  12.174  14.962
41791W        W83802  24.929  20.254   1.808
41792W        W83803  25.179  25.281   2.862
41793W        W83804  22.489  21.591  10.322
41794W        W83805  24.299  24.681  10.802
41795W        W83806  24.659  10.994   8.002
41796W        W83807  20.189  24.961  11.402
41797W        W83808  16.699  13.704   2.592
41798W        W83809  12.999  19.324   2.582
41799W        W83810  15.219  21.421   3.452
41800W        W83811  17.229  16.874   1.918
41801W        W83812   0.699   4.734   7.492
41802W        W83813  23.859  11.874   2.078
41803W        W83814  20.819   5.654  11.692
41804W        W83815  11.589   7.694   9.812
41805W        W83816   6.529  22.381   2.498
41806W        W83817   4.899  17.514   2.792
41807W        W83818  21.729  12.754   2.128
41808W        W83819  24.249  13.204   9.632
41809W        W83820  16.759  17.144   1.788
41810W        W83821  19.169   3.254  10.802
41811W        W83822   2.459   1.874  10.742
41812W        W83823  15.179  23.431  11.302
41813W        W83824  20.629  10.744  11.512
41814W        W83825  18.939  21.661  10.302
41815W        W83826   5.279   5.284   0.898
41816W        W83827  23.109   5.494   2.682
41817W        W83828   5.959   0.154   1.358
41818W        W83829  10.109  10.164   2.328
41819W        W83830  10.389   2.054   1.938
41820W        W83831  22.259  16.254   7.302
41821W        W83832  19.849   0.964  10.872
41822W        W83833  13.209   8.524   3.082
41823W        W83834   9.359  25.071  10.392
41824W        W83835   5.799   2.524   2.178
41825W        W83836  13.119  18.674  10.562
41826W        W83837  15.019  23.451   3.572
41827W        W83838   9.819  25.241   1.508
41828W        W83839   4.919   1.844   1.708
41829W        W83840  15.459  22.581   8.512
41830W        W83841   4.639  10.594   2.612
41831W        W83842   1.599   9.794   0.818
41832W        W83843   4.899   7.214  10.732
41833W        W83844  24.899  24.081   4.092
41834W        W83845   0.769   4.934   9.142
41835W        W83846  22.039   0.594   2.872
41836W        W83847   6.329  20.444   9.812
41837W        W83848   8.379  22.581   8.332
41838W        W83849  13.739  14.354   1.138
41839W        W83850   2.269   8.894  11.042
41840W        W83851  10.569  21.561   2.962
41841W        W83852  17.979  11.854   2.772
41842W        W83853  11.909   0.524   2.398
41843W        W83854  13.789  25.311   8.662
41844W        W83855  23.969  21.164   0.548
41845W        W83856   5.509   7.474   0.688
41846W        W83857   3.389  23.991   0.038
41847W        W83858  24.549  20.794   3.792
41848W        W83859   4.089   6.904   9.602
41849W        W83860  10.569  21.491   3.752
41850W        W83861  17.749   8.454   1.238
41851W        W83862   6.219   1.234   3.352
41852W        W83863  19.039   5.524   0.448
41853W        W83864  12.879   8.694   1.538
41854W        W83865   5.039   4.254  15.722
41855W        W83866  11.199   3.654   9.182
41856W        W83867   9.819  10.184   0.258
41857W        W83868  19.559  18.434   9.932
41858W        W83869  18.919  10.054   8.872
41859W        W83870   6.349   7.064   3.662
41860W        W83871  18.699  18.094   2.388
41861W        W83872   3.799   1.244   3.682
41862W        W83873   5.729  20.704  10.882
41863W        W83874  17.729   5.394   1.538
41864W        W83875   6.479   8.694   9.952
41865W        W83876  22.259   1.274   1.848
41866W        W83877   3.659  17.174   0.518
41867W        W83878   7.399   1.614   9.372
41868W        W83879  17.979   5.194   9.222
41869W        W83880  14.849   7.834   3.322
41870W        W83881   2.619   2.844   0.568
41871W        W83882  24.269  22.281   7.432
41872W        W83883   1.609  23.051   8.472
41873W        W83884   1.929  24.991   9.742
41874W        W83885   6.789   9.674  15.302
41875W        W83886  11.099  20.144   4.212
41876W        W83887   9.459   5.804  10.602
41877W        W83888  15.579   4.974   0.688
41878W        W83889   0.379   0.184   9.292
41879W        W83890   1.559  18.504   9.102
41880W        W83891  16.559  17.264   1.378
41881W        W83892  12.879   5.664  10.282
41882W        W83893   8.059  14.414   7.802
41883W        W83894  24.709  15.044  15.802
41884W        W83895  19.349  10.764   8.282
41885W        W83896  22.489   6.394   3.062
41886W        W83897  14.049  16.014   8.632
41887W        W83898   1.339  21.901  10.772
41888W        W83899  24.449  20.814   9.662
41889W        W83900  16.559  18.644  10.412
41890W        W83901  22.159   6.284   9.902
41891W        W83902  12.689  13.804  15.062
41892W        W83903   6.879  24.301  15.532
41893W        W83904   2.809   5.504  11.852
41894W        W83905   0.959  12.144   1.358
41895W        W83906  15.259   1.354   8.882
41896W        W83907   0.939  20.874  10.452
41897W        W83908   7.109   4.664   9.262
41898W        W83909   7.559   1.804   8.502
41899W        W83910   7.469  24.851   8.242
41900W        W83911   5.399  16.784   1.138
41901W        W83912  23.079  22.341   1.148
41902W        W83913   9.209   3.624   2.712
41903W        W83914  17.579   7.094   3.112
41904W        W83915  15.739   2.594  10.662
41905W        W83916   7.309  16.834  10.712
41906W        W83917   3.749  10.654   9.622
41907W        W83918  20.369   9.794  11.152
41908W        W83919  19.419  17.844   9.742
41909W        W83920   1.109  12.094  10.142
41910W        W83921   4.739   8.204  11.032
41911W        W83922  23.449  15.344   1.948
41912W        W83923   6.899  15.974  10.472
41913W        W83924  13.089  23.111   4.092
41914W        W83925   9.919   5.054  11.172
41915W        W83926  22.779   8.704  10.792
41916W        W83927  17.689  15.504   0.828
41917W        W83928  11.679  10.634   2.258
41918W        W83929   3.979   2.424   1.848
41919W        W83930  24.109  23.431  10.732
41920W        W83931  18.839  17.234   7.792
41921W        W83932  23.689  19.464   3.272
41922W        W83933  17.669   3.344  10.442
41923W        W83934  17.579  25.041   3.862
41924W        W83935   7.819   1.794   7.622
41925W        W83936  21.639  20.224   6.952
41926W        W83937   8.919   3.014   3.462
41927W        W83938  18.639  18.554  10.332
41928W        W83939   2.159  17.774  10.012
41929W        W83940   9.069  11.134   4.142
41930W        W83941  21.299  21.921  15.782
41931W        W83942   1.309  17.974   2.118
41932W        W83943  22.669  19.834   0.168
41933W        W83944   0.769  17.524  12.492
41934W        W83945  19.539   3.484   1.828
41935W        W83946  16.019  17.554   2.178
41936W        W83947  19.329   3.904   3.272
41937W        W83948  19.109   8.644   3.492
41938W        W83949   9.799  24.981  15.092
41939W        W83950   4.789   6.174   6.952
41940W        W83951  20.769   7.554   9.852
41941W        W83952  21.539  13.384  11.362
41942W        W83953  23.469  12.344   8.632
41943W        W83954  23.719   8.384  11.372
41944W        W83955   8.809  17.564  15.372
41945W        W83956  24.079   5.244   1.188
41946W        W83957   3.759  17.644  11.532
41947W        W83958  24.289   0.004   9.402
41948W        W83959   6.909   0.074   8.082
41949W        W83960  22.399  13.784   0.898
41950W        W83961  17.349   8.434   0.298
41951W        W83962  21.589  14.434   1.028
41952W        W83963  17.189   1.464   1.368
41953W        W83964  24.339  19.704   2.318
41954W        W83965  16.389  16.054   1.258
41955W        W83966   5.159   4.744   0.118
41956W        W83967  25.279  16.674   3.582
41957W        W83968  14.359  17.464   8.872
41958W        W83969   5.409   5.334  10.762
41959W        W83970  20.689   4.334  10.032
41960W        W83971  14.929  14.234  15.842
41961W        W83972  14.579   2.844   0.388
41962W        W83973  20.769  14.874   0.418
41963W        W83974  22.939  22.851   1.748
41964W        W83975  12.029  10.384  14.252
41965W        W83976  25.109  19.564  12.502
41966W        W83977  15.579  18.944   9.742
41967W        W83978  10.889  17.834   9.052
41968W        W83979  21.989   1.874  10.072
41969W        W83980  23.269  19.534   2.028
41970W        W83981  18.259  23.811   1.768
41971W        W83982   4.689  17.774   7.752
41972W        W83983  14.109  17.054   8.912
41973W        W83984   5.599  16.614   2.672
41974W        W83985  11.889  15.204   3.812
41975W        W83986  23.909  10.574   8.262
41976W        W83987   9.409   9.114   4.252
41977W        W83988  20.749  12.884   1.868
41978W        W83989  13.619  16.144  10.182
41979W        W83990  22.539  22.521   2.992
41980W        W83991   1.269  22.201  12.162
41981W        W83992  22.619  19.684  11.762
41982W        W83993  15.409  23.041   8.092
41983W        W83994   7.069   9.564   1.468
41984W        W83995   2.009  23.991  10.812
41985W        W83996  10.019   0.774   8.602
41986W        W83997  16.319  12.464   0.048
41987W        W83998  16.549   0.714   3.102
41988W        W83999   4.519   6.454   3.202
41989W        W84000   9.649  23.531   2.772
41990W        W84001  16.309  17.094   3.422
41991W        W84002   0.829  20.184   9.472
41992W        W84003   8.559  18.264   9.682
41993W        W84004  21.149  11.584  10.062
41994W        W84005  25.589  21.661  10.012
41995W        W84006  20.299  12.234   9.102
41996W        W84007  24.369  10.634   0.448
41997W        W84008   3.079  25.261   2.388
41998W        W84009  23.009  18.224   2.058
41999W        W84010   5.439   4.744   3.412
42000W        W84011  24.069  10.734   3.612
42001W        W84012  14.229  20.384  11.112
42002W        W84013  14.359  21.481   0.108
42003W        W84014  24.679   9.344   7.742
42004W        W84015   6.619   4.464   2.008
42005W        W84016   1.219  25.051   0.598
42006W        W84017  14.959  18.044   3.852
42007W        W84018  23.359   5.794   6.842
42008W        W84019   7.419  18.234  11.562
42009W        W84020  18.569  14.744  11.232
42010W        W84021   8.789  17.634   2.912
42011W        W84022   7.839   8.424  15.092
42012W        W84023  15.079  24.551   8.392
42013W        W84024   4.619  16.834   8.102
42014W        W84025  15.929   9.464   0.998
42015W        W84026  20.379   7.734   2.942
42016W        W84027  11.859  11.064   4.342
42017W        W84028  23.009  19.384   7.532
42018W        W84029  23.059   5.584   0.118
42019W        W84030  10.889   2.444   0.328
42020W        W84031  10.169   7.804   8.862
42021W        W84032   1.089   3.434   9.892
42022W        W84033  12.709   7.774   8.472
42023W        W84034  18.799  16.074   8.072
42024W        W84035  18.759  19.714  11.882
42025W        W84036   0.129  19.304  11.652
42026W        W84037  15.689   2.814   9.212
42027W        W84038   5.239   5.194  11.522
42028W        W84039  12.769   7.534   0.858
42029W        W84040   8.389  15.454   0.458
42030W        W84041  13.089   2.904   9.472
42031W        W84042  15.179  10.624   2.832
42032W        W84043  13.589   6.664   3.812
42033W        W84044   0.509  11.454   1.598
42034W        W84045  25.359  22.831   9.232
42035W        W84046  16.909   7.694   2.992
42036W        W84047  12.889  19.054  10.232
42037W        W84048  23.879  15.114   8.582
42038W        W84049  15.559  21.551   8.252
42039W        W84050  13.099  23.501   1.748
42040W        W84051  10.119   3.084   9.642
42041W        W84052   2.789  15.444   8.832
42042W        W84053   1.009  22.631  11.342
42043W        W84054   4.049  21.371  10.562
42044W        W84055  18.549  23.671  11.512
42045W        W84056   0.079  19.114   3.232
42046W        W84057  15.429   3.384   9.432
42047W        W84058  12.379   9.864   3.502
42048W        W84059   5.539   5.184   2.702
42049W        W84060   6.549  23.571  10.462
42050W        W84061  16.899  24.911   2.128
42051W        W84062  18.919  25.591   0.758
42052W        W84063  21.639   6.554  15.272
42053W        W84064  24.759  21.671  15.602
42054W        W84065   2.959  20.724   2.318
42055W        W84066   1.599  21.911   0.538
42056W        W84067   0.069   0.454   3.112
42057W        W84068  21.299  24.391   7.532
42058W        W84069   9.309  21.264   3.992
42059W        W84070  17.619  24.711  11.012
42060W        W84071  13.389  24.821   2.892
42061W        W84072  13.399  19.454   4.542
42062W        W84073  14.209   9.624   9.582
42063W        W84074  16.279  13.334   3.782
42064W        W84075  19.959  14.614   7.782
42065W        W84076   6.419  10.524   8.332
42066W        W84077   5.709  16.684   3.352
42067W        W84078   0.919   2.814   8.822
42068W        W84079  13.769   9.694   9.342
42069W        W84080  21.859  21.561  10.932
42070W        W84081  17.079  21.591   8.392
42071W        W84082   4.669   3.784  10.322
42072W        W84083   0.419  17.534  10.652
42073W        W84084   7.999   4.214   2.238
42074W        W84085  24.379   1.904  10.662
42075W        W84086  16.499   6.184   4.382
42076W        W84087  12.199  19.454   0.018
42077W        W84088   9.469   3.464   2.278
42078W        W84089  11.009  15.204  11.382
42079W        W84090  23.969  21.801   2.008
42080W        W84091  22.759  11.144   0.328
42081W        W84092   8.899  21.491  10.952
42082W        W84093  15.949  21.234   0.838
42083W        W84094  24.549  24.351   1.348
42084W        W84095  21.929   4.694   3.672
42085W        W84096   5.339   4.624   1.088
42086W        W84097  18.589   0.674   8.072
42087W        W84098  25.019   3.794   7.742
42088W        W84099  16.519  25.421  15.482
42089W        W84100  18.789   9.844   3.182
42090W        W84101  16.359  24.241  10.492
42091W        W84102  11.119   6.564   0.538
42092W        W84103   7.709  16.084  11.572
42093W        W84104  19.659  25.461   2.872
42094W        W84105  14.209  19.004  10.952
42095W        W84106  14.439   0.204  11.102
42096W        W84107   6.119  17.364   7.762
42097W        W84108  24.719  11.944   9.022
42098W        W84109   4.189  13.384   0.958
42099W        W84110   6.279  19.604  11.512
42100W        W84111  16.849  11.674   3.632
42101W        W84112   2.009   9.134   1.658
42102W        W84113   0.519  14.564   2.622
42103W        W84114   6.359   4.184   7.182
42104W        W84115  23.109  13.444   8.252
42105W        W84116  13.259   5.044  15.522
42106W        W84117  24.379   9.884   3.022
42107W        W84118  17.509   9.204  11.282
42108W        W84119  22.019  20.144   0.748
42109W        W84120  12.779  20.644   3.682
42110W        W84121   0.789   6.764   7.172
42111W        W84122  23.399  11.084   1.488
42112W        W84123  20.899  19.874   7.852
42113W        W84124   2.699   0.794   3.602
42114W        W84125  20.519   2.104   3.062
42115W        W84126   2.239  10.904   1.468
42116W        W84127  10.719  24.441  11.142
42117W        W84128  12.199  20.174  14.522
42118W        W84129   4.519  20.004  10.212
42119W        W84130  15.479   6.774   8.262
42120W        W84131   1.239  23.401   2.438
42121W        W84132  12.949  20.114  10.882
42122W        W84133  11.779  23.451   9.052
42123W        W84134  14.669  24.901   9.862
42124W        W84135  12.749  10.654   0.678
42125W        W84136  21.609  24.491  10.622
42126W        W84137   9.649  18.874  10.642
42127W        W84138   1.469   8.534  10.962
42128W        W84139  23.959  15.884   8.332
42129W        W84140  18.419  16.914  12.242
42130W        W84141   3.419   0.064   1.218
42131W        W84142  24.089   4.864  11.332
42132W        W84143   3.679  11.944   3.642
42133W        W84144  11.799  13.274   4.642
42134W        W84145  13.999   3.094   9.002
42135W        W84146   0.269  15.554   3.412
42136W        W84147   3.739   9.674   1.238
42137W        W84148  12.699  13.064   3.912
42138W        W84149   8.519  20.524   8.102
42139W        W84150  17.479   6.154   4.072
42140W        W84151   9.249  12.264   9.472
42141W        W84152  11.669  23.401  10.532
42142W        W84153  13.219   9.814   4.082
42143W        W84154  24.889   3.464  10.832
42144W        W84155  20.179  18.664   1.788
42145W        W84156   4.879   6.104   7.462
42146W        W84157   4.129  13.084   2.098
42147W        W84158  14.839   6.344   0.878
42148W        W84159  11.299  10.504  10.172
42149W        W84160   5.429   3.924   3.052
42150W        W84161  24.169   6.564  10.112
42151W        W84162  17.069   2.444   3.892
42152W        W84163  23.269   7.454   1.858
42153W        W84164  17.159  21.491  10.332
42154W        W84165  19.109  23.431   0.888
42155W        W84166  19.239   4.094   7.972
42156W        W84167   7.069  15.524   8.972
42157W        W84168   3.839   4.174   7.622
42158W        W84169  24.669  16.164  10.772
42159W        W84170  15.839  20.144   8.882
42160W        W84171  23.979   5.264   7.782
42161W        W84172  10.279   9.094  14.842
42162W        W84173  13.429   5.094   9.062
42163W        W84174  13.419   8.144   0.528
42164W        W84175  18.379  17.474   0.888
42165W        W84176  22.109  18.034   8.332
42166W        W84177   2.649  18.904   1.958
42167W        W84178  16.059  18.574  10.502
42168W        W84179   2.079   8.324   2.622
42169W        W84180  20.339  20.264   2.398
42170W        W84181  21.479  24.891   3.792
42171W        W84182   2.939   0.104   0.918
42172W        W84183   0.449   5.904   6.712
42173W        W84184  16.139  17.264  15.202
42174W        W84185  17.069  12.314   8.692
42175W        W84186  24.029  19.574   3.592
42176W        W84187   8.339   0.854   9.902
42177W        W84188   6.589  22.021   4.292
42178W        W84189  23.989   9.784   1.538
42179W        W84190  13.239   5.964   8.622
42180W        W84191  11.179  11.724   4.762
42181W        W84192   0.379   3.314  10.182
42182W        W84193  23.219   3.804   9.492
42183W        W84194  22.799  13.794   0.108
42184W        W84195   5.309   7.424  10.502
42185W        W84196   8.659   8.524   8.482
42186W        W84197  24.519  16.814   9.452
42187W        W84198   0.299  10.194   0.568
42188W        W84199  20.509  16.934   9.802
42189W        W84200  25.349   7.214   7.072
42190W        W84201   2.889   5.124   9.462
42191W        W84202  22.349  18.094   2.158
42192W        W84203  11.989   8.514   3.552
42193W        W84204  24.439  24.761  11.672
42194W        W84205  18.459  20.984   1.328
42195W        W84206  24.109   5.424   7.292
42196W        W84207  11.679  11.854  14.072
42197W        W84208  23.049  18.034   3.222
42198W        W84209   2.509  21.184   8.762
42199W        W84210   8.819  10.064  15.862
42200W        W84211  25.039   8.494   3.372
42201W        W84212  10.159   1.084   0.358
42202W        W84213  22.659   9.474   1.478
42203W        W84214  20.689  20.964   8.482
42204W        W84215  15.429   4.604   8.462
42205W        W84216  10.329  22.241   8.252
42206W        W84217   4.919   5.664   0.958
42207W        W84218   1.249  12.654   1.508
42208W        W84219   3.989   3.974   0.438
42209W        W84220  12.999   6.104  10.642
42210W        W84221   2.669  12.774   6.982
42211W        W84222  19.249  20.964   2.108
42212W        W84223  14.979   0.114   8.082
42213W        W84224  23.759   6.334   2.902
42214W        W84225  10.929  17.154  11.032
42215W        W84226   8.229   9.944   2.028
42216W        W84227   9.999  24.911   1.938
42217W        W84228   6.389   6.584   9.162
42218W        W84229   7.189   7.924   2.178
42219W        W84230  16.349  16.244   9.232
42220W        W84231   8.239  23.541  15.632
42221W        W84232  13.219  17.054   5.292
42222W        W84233  13.029   3.424   8.912
42223W        W84234  11.689  19.014   4.642
42224W        W84235   4.179  17.904   1.758
42225W        W84236  18.809  19.734   8.292
42226W        W84237  24.159   8.674  15.252
42227W        W84238  13.579   6.434   3.352
42228W        W84239  25.039  13.814  15.262
42229W        W84240   4.539  20.794   9.612
42230W        W84241  16.749   4.364   1.968
42231W        W84242   0.619  16.344  11.832
42232W        W84243   1.839  15.334   7.662
42233W        W84244   9.529   4.554   9.782
42234W        W84245   1.609  10.224   9.942
42235W        W84246  18.459  15.964   8.472
42236W        W84247  12.509  16.674   2.772
42237W        W84248   7.289   1.384  10.552
42238W        W84249  20.499  18.994  10.692
42239W        W84250  15.909   3.544  15.782
42240W        W84251   8.689   3.994   9.902
42241W        W84252  23.739   2.424   8.802
42242W        W84253  10.039   4.404  10.212
42243W        W84254  17.619   4.874   9.802
42244W        W84255  18.219   7.274   8.492
42245W        W84256   0.041  16.814   3.312
42246W        W84257  14.439   7.734  11.242
42247W        W84258  16.709  18.244   9.382
42248W        W84259   0.229  21.701   8.612
42249W        W84260  19.619  16.334  12.382
42250W        W84261  24.209   9.874   7.542
42251W        W84262  22.309   9.894   9.382
42252W        W84263  19.589   2.684   0.908
42253W        W84264  11.099  20.034   3.602
42254W        W84265  11.659  17.954   4.282
42255W        W84266  13.899   7.884   4.812
42256W        W84267   2.789   1.984  15.542
42257W        W84268  13.789  10.184   8.942
42258W        W84269   5.179  16.354   8.272
42259W        W84270  20.179  23.431   3.142
42260W        W84271   6.059  18.684   3.582
42261W        W84272  16.419  14.634   4.082
42262W        W84273  10.289  14.204  10.012
42263W        W84274   3.689   8.984  11.012
42264W        W84275   3.179  23.481   8.102
42265W        W84276  23.829  12.674  11.372
42266W        W84277  11.319   6.074  15.342
42267W        W84278  16.469  14.604   2.612
42268W        W84279   7.749  15.354   8.232
42269W        W84280   5.619  25.101   9.752
42270W        W84281  13.499  23.761   0.888
42271W        W84282  19.169  11.844   1.988
42272W        W84283  24.339  17.144   0.848
42273W        W84284  19.159   0.044  11.672
42274W        W84285   1.689  20.564   3.172
42275W        W84286   5.809   1.964  10.132
42276W        W84287  20.099  21.581   2.622
42277W        W84288  11.429   5.804   1.038
42278W        W84289   4.829  15.844   0.618
42279W        W84290  20.029  24.161   9.862
42280W        W84291  25.039   1.804   9.042
42281W        W84292  13.969  14.014   1.448
42282W        W84293   2.929  18.284   0.288
42283W        W84294  17.489  19.544   2.268
42284W        W84295  21.419  21.381  11.202
42285W        W84296  17.519   2.084  11.042
42286W        W84297  13.579   5.724  10.142
42287W        W84298  10.239   0.714   1.898
42288W        W84299   5.909  21.911   8.832
42289W        W84300   7.029   2.494   0.048
42290W        W84301  18.159  10.994   1.668
42291W        W84302  21.889  15.794   0.588
42292W        W84303   1.239  19.824   1.478
42293W        W84304  13.019  10.504   4.502
42294W        W84305   7.839  23.911  15.452
42295W        W84306  17.919  20.804   3.062
42296W        W84307  19.919  17.164  12.482
42297W        W84308  21.109  12.434   1.558
42298W        W84309   8.259  23.791   2.642
42299W        W84310   1.429  16.984  10.252
42300W        W84311  20.769  21.014  10.452
42301W        W84312   7.119   5.604  10.672
42302W        W84313  15.909  23.141   1.158
42303W        W84314  20.079   3.344   3.422
42304W        W84315  15.129   1.824  10.842
42305W        W84316  25.179  10.774  11.362
42306W        W84317   2.269  11.764   3.292
42307W        W84318  20.589   2.164   1.528
42308W        W84319  20.659  17.674   3.132
42309W        W84320   8.059   7.714   1.508
42310W        W84321  21.229  17.834   9.412
42311W        W84322  25.089  13.754   9.922
42312W        W84323   8.599   3.134   1.438
42313W        W84324  21.639   5.984   3.092
42314W        W84325   2.309  11.454   1.298
42315W        W84326  25.569  13.114  10.512
42316W        W84327   9.669  14.614   0.778
42317W        W84328  21.889  19.614   0.428
42318W        W84329  19.389   0.804   0.348
42319W        W84330  22.329   7.644   6.912
42320W        W84331  19.559  22.611  15.742
42321W        W84332   9.809   9.544  10.302
42322W        W84333  12.469   5.564   3.252
42323W        W84334  15.549  21.741   0.758
42324W        W84335  18.749  23.321   2.338
42325W        W84336  16.949   5.274   2.852
42326W        W84337   3.969  24.941   3.132
42327W        W84338  23.989   1.414  10.042
42328W        W84339   3.849  11.254   0.278
42329W        W84340  11.859  25.321   9.912
42330W        W84341  25.009   7.504  10.522
42331W        W84342   3.519  18.364   8.262
42332W        W84343  16.099   8.274   9.022
42333W        W84344  11.779   9.284  15.272
42334W        W84345  19.799  21.284   7.602
42335W        W84346  24.889  13.574  15.842
42336W        W84347  13.709  16.764   2.358
42337W        W84348  14.739  10.654   2.512
42338W        W84349  15.109  24.931  10.722
42339W        W84350  12.449  17.744   9.182
42340W        W84351   6.439   4.314   7.872
42341W        W84352   2.059  16.304   9.842
42342W        W84353   0.759   6.974   0.658
42343W        W84354  25.089   7.484   3.702
42344W        W84355  21.839  19.184   3.092
42345W        W84356   8.909  20.784  15.482
42346W        W84357   3.749   0.194   2.622
42347W        W84358   2.479  21.344  12.072
42348W        W84359  18.769   3.924   1.058
42349W        W84360  10.169  14.724   3.002
42350W        W84361  14.799  25.401  11.062
42351W        W84362  24.939   7.254   9.082
42352W        W84363  10.129   4.794   7.912
42353W        W84364   0.409  16.224   0.528
42354W        W84365  21.349  23.071   0.408
42355W        W84366   6.319  10.684  10.182
42356W        W84367   2.549  19.184  15.832
42357W        W84368   8.629  12.704  15.602
42358W        W84369   6.209   2.174   0.578
42359W        W84370  21.009   5.584   1.228
42360W        W84371   1.709  17.484   9.132
42361W        W84372   0.999  10.314   8.762
42362W        W84373  19.459  16.984   2.468
42363W        W84374  11.749   3.734   9.192
42364W        W84375  23.219   3.514  10.382
42365W        W84376   7.339   4.734   8.772
42366W        W84377  21.389   3.864   1.838
42367W        W84378   3.949  15.834   7.842
42368W        W84379  12.779   7.774  10.052
42369W        W84380   9.699   8.584   3.782
42370W        W84381   7.079   0.934   9.762
42371W        W84382  23.919  14.884   0.228
42372W        W84383   0.439   2.614   0.478
42373W        W84384   2.929  22.381   1.398
42374W        W84385  22.039   6.024  11.612
42375W        W84386  20.949  24.161  11.282
42376W        W84387   6.689  22.611  10.152
42377W        W84388   9.129   8.704   8.442
42378W        W84389   8.409  18.574  15.752
42379W        W84390  11.709  18.884   1.418
42380W        W84391   6.309  10.534   3.002
42381W        W84392  13.539  11.224  14.702
42382W        W84393   1.119  10.024   8.342
42383W        W84394  14.239   3.634   9.882
42384W        W84395  14.309  14.004   2.822
42385W        W84396   6.229  23.441   9.192
42386W        W84397  14.949  19.484   0.718
42387W        W84398  13.339  17.154   1.058
42388W        W84399  22.339  18.704   0.368
42389W        W84400   3.909   5.334  10.182
42390W        W84401  18.419   0.794   2.922
42391W        W84402  21.739  20.234   9.762
42392W        W84403  20.679  13.904   8.422
42393W        W84404   9.079  22.451   2.358
42394W        W84405   9.489  11.224   1.588
42395W        W84406  24.309  11.074   0.688
42396W        W84407  18.989   8.454  10.442
42397W        W84408  22.219  21.244  10.752
42398W        W84409  10.689   2.334  15.712
42399W        W84410  11.839   6.234   4.152
42400W        W84411   1.019   6.744   1.768
42401W        W84412  16.459   0.714  11.202
42402W        W84413   5.179  14.104   3.022
42403W        W84414  24.829  24.691   0.498
42404W        W84415  12.199   4.884  14.802
42405W        W84416  20.979  11.944   0.148
42406W        W84417  12.359  22.071  15.682
42407W        W84418  20.989  23.041   8.552
42408W        W84419   3.119   9.594   3.372
42409W        W84420   0.099  16.274   9.112
42410W        W84421   7.399  13.814   9.002
42411W        W84422  19.969  22.111   1.658
42412W        W84423   7.769  14.824   9.192
42413W        W84424   0.149  12.614  15.622
42414W        W84425  14.409   0.394   0.948
42415W        W84426   8.019   6.354   0.648
42416W        W84427  23.639  25.301   2.008
42417W        W84428   6.759  21.274   9.912
42418W        W84429  24.999   7.614  15.602
42419W        W84430  23.229  17.514   9.042
42420W        W84431   8.729  13.454  14.752
42421W        W84432   7.079   8.384   0.218
42422W        W84433   6.499  25.411   9.212
42423W        W84434   4.709  18.334   4.032
42424W        W84435  17.199   6.804   3.212
42425W        W84436   3.279  11.754   7.742
42426W        W84437  22.329  22.431   1.398
42427W        W84438   1.579   3.194   0.688
42428W        W84439   2.569   5.204  15.572
42429W        W84440   6.899  24.941   8.382
42430W        W84441  22.889   7.884   0.478
42431W        W84442  22.429  23.811   3.742
42432W        W84443   9.649   6.274   9.052
42433W        W84444   2.199  18.954   4.142
42434W        W84445   2.369   4.774   9.942
42435W        W84446  10.179  15.194  15.432
42436W        W84447   1.569  24.991   2.448
42437W        W84448  17.739  20.914   8.572
42438W        W84449  12.169  11.054   1.438
42439W        W84450  13.769  23.821  10.362
42440W        W84451  18.509   4.834   8.032
42441W        W84452   4.689  14.804   7.462
42442W        W84453   9.789   8.904   3.332
42443W        W84454   6.389  19.134   1.898
42444W        W84455   5.929  15.304   2.622
42445W        W84456  14.369   7.384  10.602
42446W        W84457  25.559   9.224  10.582
42447W        W84458  17.669  15.264   1.828
42448W        W84459  21.969  11.124  10.702
42449W        W84460   3.569   0.994   9.792
42450W        W84461  17.159   7.434  15.652
42451W        W84462   1.669   4.184  10.442
42452W        W84463   0.499  17.914   9.902
42453W        W84464   3.789   2.964   2.612
42454W        W84465  15.529  18.354   2.408
42455W        W84466  15.999  12.784   0.218
42456W        W84467  15.439  10.064   0.298
42457W        W84468  22.769  19.394  10.772
42458W        W84469  17.319  15.824   8.442
42459W        W84470  14.069   7.534   0.028
42460W        W84471   2.729   6.404   1.718
42461W        W84472  21.999   8.664   1.688
42462W        W84473  22.239  24.791   3.502
42463W        W84474  25.079   8.694   9.672
42464W        W84475   9.969  11.824   9.502
42465W        W84476   2.829  20.834   9.062
42466W        W84477  19.159  25.541   3.422
42467W        W84478  21.639   5.614  15.392
42468W        W84479  16.349  11.304   1.468
42469W        W84480   7.439  17.444  11.132
42470W        W84481  13.259   4.454  11.292
42471W        W84482   0.159   8.134   9.582
42472W        W84483   7.609  17.174   9.382
42473W        W84484   6.879   5.014   8.922
42474W        W84485  22.429   6.734   9.942
42475W        W84486   7.039  15.144  10.842
42476W        W84487   4.589  22.681   3.112
42477W        W84488  12.929   1.484  15.232
42478W        W84489   0.749  15.404   0.398
42479W        W84490   9.709  19.334   3.462
42480W        W84491   0.669   7.884   0.788
42481W        W84492  25.449   3.194  15.872
42482W        W84493   2.849  10.374   8.272
42483W        W84494   6.469  10.024   8.112
42484W        W84495  13.719   9.954  10.312
42485W        W84496  10.499   0.824   0.018
42486W        W84497   7.619   9.344  14.232
42487W        W84498   7.119  11.364  10.092
42488W        W84499  10.459  20.464   1.108
42489W        W84500  21.109  20.364   0.728
42490W        W84501   5.589  24.201   0.948
42491W        W84502  23.699   7.624  11.982
42492W        W84503  19.159  18.094  11.082
42493W        W84504   5.379  19.094  11.452
42494W        W84505   6.779   5.574   9.722
42495W        W84506   4.969  25.571  11.622
42496W        W84507   4.009   1.544   9.242
42497W        W84508  11.249  19.544  11.262
42498W        W84509  11.539  18.304   0.148
42499W        W84510   7.539   9.824   8.682
42500W        W84511   7.329  10.554   1.158
42501W        W84512  17.979  11.884   8.582
42502W        W84513  23.209  21.961  11.012
42503W        W84514   7.129  21.084   1.448
42504W        W84515   7.699   8.524   7.932
42505W        W84516   2.139  21.154   2.752
42506W        W84517  21.569   9.754   0.308
42507W        W84518   6.259  20.604   9.112
42508W        W84519  11.679  22.481   1.638
42509W        W84520  18.929  25.151   0.598
42510W        W84521  10.239   0.224  14.932
42511W        W84522   6.849   7.914   9.052
42512W        W84523  13.269  25.361   1.998
42513W        W84524   0.579  19.504  12.322
42514W        W84525   8.599   3.744  15.332
42515W        W84526  15.639  24.241  10.282
42516W        W84527   0.879  21.004   1.218
42517W        W84528   2.719   1.924  11.732
42518W        W84529  13.299   0.954   3.442
42519W        W84530  24.659   2.544   9.452
42520W        W84531  21.979  14.424   9.002
42521W        W84532  22.679  24.891   8.822
42522W        W84533  13.459  18.154  14.992
42523W        W84534  14.739   5.404   3.112
42524W        W84535  24.429  11.174   0.128
42525W        W84536  12.459   8.314   2.682
42526W        W84537  16.019   3.944   2.498
42527W        W84538  25.129   2.634   9.292
42528W        W84539  20.089  21.611  11.562
42529W        W84540  24.849  24.651  10.862
42530W        W84541   6.499  10.754   1.168
42531W        W84542   7.499  12.014   1.988
42532W        W84543  14.429   0.994  10.412
42533W        W84544  19.969  22.611  10.872
42534W        W84545   2.629   3.014   2.388
42535W        W84546   1.739  18.344  10.642
42536W        W84547  16.319   3.374   0.178
42537W        W84548  12.159  24.101   3.732
42538W        W84549   1.099  23.861   2.498
42539W        W84550  20.819   0.134   9.412
42540W        W84551  12.529  17.964  10.242
42541W        W84552  19.869  15.154   9.822
42542W        W84553  18.379   8.484   8.882
42543W        W84554  15.579  10.584   0.288
42544W        W84555  11.759  14.974   0.578
42545W        W84556   2.269  20.234   3.682
42546W        W84557  17.629  20.884   1.168
42547W        W84558   1.409   5.254   7.782
42548W        W84559  13.709  12.114   9.752
42549W        W84560  12.189   4.074  14.032
42550W        W84561  12.759   0.254   0.728
42551W        W84562  25.459  22.911  15.822
42552W        W84563   3.939  14.834   9.042
42553W        W84564   3.189  17.744   1.288
42554W        W84565   6.439  24.761  10.242
42555W        W84566   2.379  15.274  11.202
42556W        W84567  11.089   0.644  10.932
42557W        W84568  22.959  23.481   8.042
42558W        W84569  14.429   8.794  15.302
42559W        W84570  24.489  15.794  11.022
42560W        W84571  16.669  19.704   3.342
42561W        W84572   4.209  13.934   9.282
42562W        W84573  13.709  22.561  12.212
42563W        W84574  23.839  11.204  10.242
42564W        W84575  17.299  13.334  14.682
42565W        W84576  25.019  11.404  10.392
42566W        W84577  18.669  21.074   1.948
42567W        W84578  24.229  14.864  10.502
42568W        W84579   7.799  13.504   3.202
42569W        W84580  14.479  24.481   2.038
42570W        W84581   8.549   1.044   8.842
42571W        W84582   7.989  13.124   8.062
42572W        W84583  24.269  19.174  10.102
42573W        W84584  12.229   5.574   1.538
42574W        W84585  20.889   4.614   7.912
42575W        W84586  12.459   3.884  10.062
42576W        W84587  11.519  21.154   2.562
42577W        W84588  22.629  13.104   0.728
42578W        W84589  14.999  24.471   9.682
42579W        W84590   5.009   8.154  15.082
42580W        W84591  10.609   3.214   2.812
42581W        W84592  25.349   0.124   2.672
42582W        W84593  19.529  23.671   0.628
42583W        W84594   1.279   5.194   8.762
42584W        W84595  12.759   5.194   0.938
42585W        W84596   4.809  10.454   8.952
42586W        W84597   1.709   3.684  10.522
42587W        W84598  14.459   1.634   1.188
42588W        W84599  11.239  12.524  15.232
42589W        W84600  22.209   8.944   8.162
42590W        W84601  18.899  20.964  12.652
42591W        W84602  19.029  24.871   1.028
42592W        W84603  18.019  14.724   4.182
42593W        W84604   9.039  23.211   4.542
42594W        W84605  21.959   6.754   9.432
42595W        W84606  20.679   0.504  10.882
42596W        W84607   1.549   2.344  11.642
42597W        W84608   2.199  12.774   2.532
42598W        W84609   3.599  23.761   9.372
42599W        W84610  16.449  13.694   0.178
42600W        W84611  15.359   7.224  10.132
42601W        W84612  16.069   5.014   9.042
42602W        W84613  11.819  18.754  15.172
42603W        W84614   4.469   7.024   6.992
42604W        W84615  11.309  12.434   9.252
42605W        W84616  15.149  15.394   8.172
42606W        W84617  19.969  20.744   0.238
42607W        W84618   6.109  24.461   2.832
42608W        W84619   8.539  13.454   2.992
42609W        W84620  22.889  22.451  15.832
42610W        W84621  11.589   8.724   0.548
42611W        W84622  24.419  19.544  11.892
42612W        W84623  21.509   7.924   0.908
42613W        W84624  23.079  11.914   2.772
42614W        W84625   8.619   6.034   9.362
42615W        W84626   7.379   9.354   1.988
42616W        W84627  24.839  21.651  10.822
42617W        W84628  16.039   4.244   9.662
42618W        W84629  15.279  13.014   3.642
42619W        W84630  23.399  18.334  11.552
42620W        W84631  11.079   6.094   0.868
42621W        W84632   4.659  15.294  10.282
42622W        W84633  24.569  11.624   1.288
42623W        W84634  20.479   5.824   7.602
42624W        W84635  10.029   0.634   0.328
42625W        W84636   4.429   3.674   0.458
42626W        W84637  13.879  21.274   2.842
42627W        W84638   0.099   3.974  15.832
42628W        W84639   2.149   4.224  10.932
42629W        W84640  14.529  24.051   1.698
42630W        W84641   9.519  25.031   0.508
42631W        W84642   4.589   9.474   1.398
42632W        W84643  13.149   2.454   3.312
42633W        W84644   3.849  22.201   1.178
42634W        W84645  23.889  22.541  11.292
42635W        W84646   0.179   0.434   0.138
42636W        W84647   6.259   4.374  15.702
42637W        W84648   4.109   5.814  10.272
42638W        W84649  24.499   1.974   9.302
42639W        W84650   6.319  13.774   0.168
42640W        W84651   1.129   9.714   7.492
42641W        W84652  14.469  17.494   1.878
42642W        W84653  11.379   3.024  10.812
42643W        W84654  12.289   1.244   9.012
42644W        W84655   0.749  19.984  12.212
42645W        W84656   7.539   3.414  10.342
42646W        W84657   8.669  23.371   1.148
42647W        W84658   1.339  19.124   1.898
42648W        W84659   8.759   4.464   1.118
42649W        W84660  19.159  25.571  12.132
42650W        W84661  13.839  17.684  10.752
42651W        W84662  13.049  14.004   4.432
42652W        W84663   7.909  12.134  10.532
42653W        W84664  19.329  14.844   1.588
42654W        W84665  21.489   2.984   0.278
42655W        W84666  13.729  15.764   2.842
42656W        W84667   4.389  14.664  10.472
42657W        W84668  13.169   9.474   8.512
42658W        W84669  16.189   1.294   1.238
42659W        W84670  13.759   2.124   4.042
42660W        W84671   7.829  23.921   2.832
42661W        W84672   4.779  12.984   2.822
42662W        W84673  13.149  25.161   0.238
42663W        W84674  15.579   5.804   1.088
42664W        W84675  12.909  15.654   4.892
42665W        W84676  18.059  17.294  11.132
42666W        W84677   1.019  16.244   7.112
42667W        W84678   6.929  21.371   3.692
42668W        W84679   9.749   3.884   0.158
42669W        W84680  18.619  25.311   8.382
42670W        W84681  17.589   0.964   8.352
42671W        W84682  14.739   3.094  11.402
42672W        W84683  22.009  16.554   2.128
42673W        W84684  13.079   3.114   1.178
42674W        W84685  17.519   2.774   9.542
42675W        W84686  17.989   7.824   1.878
42676W        W84687  14.089  23.931   2.652
42677W        W84688  24.689  13.314  10.392
42678W        W84689  11.109   7.014   8.442
42679W        W84690  13.399  15.964   3.152
42680W        W84691   8.259  23.841   8.642
42681W        W84692  14.399   5.014   3.382
42682W        W84693  13.169  14.584   9.802
42683W        W84694   5.289  18.094  12.302
42684W        W84695  15.369  25.581   1.688
42685W        W84696  19.599  13.364   0.378
42686W        W84697   4.569  12.514   0.488
42687W        W84698   2.929   1.094   2.168
42688W        W84699  15.249  16.114   0.238
42689W        W84700   3.439  25.451   9.432
42690W        W84701  22.629   1.864   8.392
42691W        W84702  20.659   9.724   2.622
42692W        W84703  23.089  12.014   8.642
42693W        W84704   8.119   8.324   0.108
42694W        W84705  20.369  22.341  10.762
42695W        W84706  24.439  19.564   9.912
42696W        W84707  22.849  23.291  11.322
42697W        W84708  24.189  16.364   2.388
42698W        W84709  25.369   8.994  15.872
42699W        W84710  15.919  12.434  14.642
42700W        W84711  18.739   1.424   1.658
42701W        W84712  23.909  19.044   3.942
42702W        W84713  16.849  11.454   1.448
42703W        W84714  17.429   1.164   4.042
42704W        W84715   2.289  11.504  10.822
42705W        W84716  12.649  20.964   1.428
42706W        W84717  23.099   8.144  10.582
42707W        W84718   7.279   7.994   8.832
42708W        W84719  13.489   1.374   2.388
42709W        W84720  24.929   5.394   3.522
42710W        W84721   9.039  20.434  11.382
42711W        W84722  12.999   0.694   3.902
42712W        W84723  12.329  21.224   1.688
42713W        W84724  21.559   0.084  10.592
42714W        W84725  14.569   2.564   3.692
42715W        W84726   7.009   8.334   9.412
42716W        W84727   9.029   7.994   9.562
42717W        W84728   7.569   7.844   0.848
42718W        W84729  22.329   2.194  10.092
42719W        W84730  22.229   1.244   4.062
42720W        W84731  11.029  22.381   9.332
42721W        W84732  25.259   8.564   2.298
42722W        W84733   3.029  15.934  15.282
42723W        W84734   9.389  13.534  15.672
42724W        W84735  20.379  15.414   1.268
42725W        W84736   0.439  11.134   7.322
42726W        W84737  11.139   2.674  10.342
42727W        W84738   9.259  20.784   2.942
42728W        W84739   5.829  16.824   1.468
42729W        W84740  20.069   6.194  10.482
42730W        W84741   1.219  18.794   1.458
42731W        W84742  22.879  21.471   0.118
42732W        W84743  10.279   0.974   7.762
42733W        W84744  21.499  11.794   9.102
42734W        W84745  12.069  22.771   3.042
42735W        W84746  19.789  18.064   8.092
42736W        W84747   8.969  19.424   0.088
42737W        W84748   1.189  15.954   9.042
42738W        W84749  24.149   5.804   1.098
42739W        W84750  19.619  13.854   9.922
42740W        W84751   2.399   1.844   1.968
42741W        W84752  20.709  17.184   3.192
42742W        W84753  14.039  11.554  14.552
42743W        W84754  14.719  21.114  10.882
42744W        W84755   4.189   8.874  15.232
42745W        W84756  10.999   4.244   2.458
42746W        W84757  16.439   4.704   4.032
42747W        W84758  21.979   4.734  10.172
42748W        W84759   9.189   9.784   1.648
42749W        W84760   0.699   1.554   7.892
42750W        W84761  13.649   2.534   0.868
42751W        W84762   8.239   5.034   1.058
42752W        W84763  14.219   1.234  14.612
42753W        W84764  13.419   3.984   8.712
42754W        W84765  13.279  22.261  15.502
42755W        W84766  23.269  17.154   1.578
42756W        W84767  21.109  16.084   1.138
42757W        W84768  13.059  24.561   1.418
42758W        W84769   7.799  14.384   1.878
42759W        W84770  10.179  15.624   0.828
42760W        W84771  17.009  22.831   2.298
42761W        W84772  15.409  14.324   3.362
42762W        W84773  10.099  11.754   2.468
42763W        W84774   7.809  16.344   8.872
42764W        W84775  16.359  17.934   0.048
42765W        W84776   0.031  11.124   2.488
42766W        W84777  22.199  10.854  15.382
42767W        W84778  23.069   3.854   3.162
42768W        W84779  16.089   1.414   2.288
42769W        W84780  25.109  17.514   0.058
42770W        W84781  17.649  19.994   8.682
42771W        W84782  21.359   9.834   9.432
42772W        W84783  22.879  18.154  10.322
42773W        W84784  14.159  14.214  10.322
42774W        W84785   0.699  12.784   9.482
42775W        W84786  21.719  20.084   8.252
42776W        W84787  15.109   7.824   9.032
42777W        W84788  16.169   3.234   9.972
42778W        W84789  18.229   3.804   2.612
42779W        W84790   2.529   3.414   8.632
42780W        W84791  22.429  14.784   1.118
42781W        W84792   8.149  10.454   1.658
42782W        W84793  24.839  12.904   2.802
42783W        W84794   1.299   2.474   7.632
42784W        W84795  20.959  16.754   7.932
42785W        W84796  23.239  23.041   8.192
42786W        W84797  20.089  20.644   9.522
42787W        W84798  23.399  17.824  10.942
42788W        W84799   0.759  19.254   2.732
42789W        W84800   9.349  14.884  15.282
42790W        W84801   4.029  16.524   1.518
42791W        W84802  16.469   7.514   2.782
42792W        W84803  17.099   3.684  14.672
42793W        W84804   7.969  19.014  10.262
42794W        W84805  24.599  18.144   9.932
42795W        W84806  15.139   2.714   0.728
42796W        W84807   7.449  13.924   3.422
42797W        W84808   6.999  23.361   3.092
42798W        W84809   2.239   1.274   7.612
42799W        W84810  24.259   0.214  10.822
42800W        W84811  14.499   9.944   9.902
42801W        W84812   0.829  24.641   0.528
42802W        W84813  17.759   0.344   2.702
42803W        W84814   5.999  14.154   9.702
42804W        W84815  18.829   4.754   0.808
42805W        W84816   7.139   1.524   0.508
42806W        W84817  16.349  18.294   3.672
42807W        W84818  15.889   3.584  10.852
42808W        W84819   8.929   8.754   0.028
42809W        W84820   7.369  17.544  10.162
42810W        W84821   9.109  10.694   1.678
42811W        W84822   0.759  11.374   0.998
42812W        W84823   7.339  10.434  10.052
42813W        W84824   5.579  24.181  10.202
42814W        W84825  19.189  15.474   8.722
42815W        W84826   6.459   0.824  11.062
42816W        W84827  13.819  23.511   1.688
42817W        W84828   0.429  13.854   0.858
42818W        W84829  13.029  19.374  15.722
42819W        W84830   5.149   0.214   1.268
42820W        W84831  12.799  10.404  10.582
42821W        W84832  21.279   8.824  15.342
42822W        W84833  16.179  16.774  15.072
42823W        W84834  16.129   1.054  10.872
42824W        W84835  16.379   2.294   1.348
42825W        W84836  21.709  19.734   7.712
42826W        W84837  22.509  16.274   4.152
42827W        W84838  20.429   5.174   0.038
42828W        W84839   0.779   8.534   8.942
42829W        W84840  24.109  15.764   4.112
42830W        W84841   3.039  13.144   1.958
42831W        W84842   6.879  22.151   9.492
42832W        W84843  24.059  14.874   2.502
42833W        W84844   2.499  21.094  10.292
42834W        W84845   1.999   4.484   7.952
42835W        W84846  16.409   9.714   0.968
42836W        W84847  19.789  11.874   4.212
42837W        W84848  23.289  24.491   2.592
42838W        W84849   9.819   8.514   1.368
42839W        W84850  22.609   3.064   7.052
42840W        W84851   6.279  18.844   2.318
42841W        W84852  17.719   3.914   7.832
42842W        W84853   4.129   0.494   8.162
42843W        W84854  23.019  19.714  10.292
42844W        W84855   6.899  24.521   9.342
42845W        W84856   3.279   5.884  15.682
42846W        W84857  14.799   9.224  15.622
42847W        W84858  20.329   5.964  15.482
42848W        W84859   3.009  17.814   2.458
42849W        W84860   8.449  19.944  10.082
42850W        W84861  25.019   6.364   8.212
42851W        W84862  16.879  11.264   8.422
42852W        W84863   9.999  16.104  15.172
42853W        W84864   0.359  18.094  10.362
42854W        W84865  19.239  23.851   1.558
42855W        W84866   3.589   9.094   9.682
42856W        W84867  24.709  14.854   8.732
42857W        W84868  12.759  18.314   0.738
42858W        W84869  11.479  13.324  10.752
42859W        W84870  19.779   1.314   2.428
42860W        W84871  24.599   8.514   9.802
42861W        W84872  19.689  15.064   1.868
42862W        W84873   1.139  21.831   0.978
42863W        W84874   0.789   3.284   7.612
42864W        W84875  11.909  19.374  15.122
42865W        W84876  11.419  17.704  14.902
42866W        W84877   5.389   0.824   8.802
42867W        W84878   3.809  22.731   7.902
42868W        W84879  23.849  19.404   7.972
42869W        W84880  14.119   1.004   1.708
42870W        W84881  21.519  21.244   1.368
42871W        W84882  17.649  11.224   9.162
42872W        W84883   5.679  20.564   1.978
42873W        W84884   6.829  17.274   3.072
42874W        W84885  15.559  16.024   8.832
42875W        W84886  19.599  15.214  11.402
42876W        W84887  14.749  23.261   3.942
42877W        W84888   0.589  17.464   2.852
42878W        W84889  10.259  14.464   0.698
42879W        W84890  23.459   6.164  11.352
42880W        W84891   7.939  14.084   0.438
42881W        W84892   1.789   9.924  15.292
42882W        W84893   0.041   9.494  15.832
42883W        W84894  20.139   9.554  11.532
42884W        W84895  17.719  13.824   3.712
42885W        W84896  10.949  10.454  10.592
42886W        W84897   5.909  12.404   2.108
42887W        W84898  12.219   1.414   1.998
42888W        W84899  22.919   7.244   3.662
42889W        W84900   0.011  17.834  10.642
42890W        W84901   3.339  18.394   7.712
42891W        W84902  14.009  15.374   1.528
42892W        W84903   3.239  24.781   8.902
42893W        W84904  19.859  22.461  12.282
42894W        W84905   0.519   1.754  11.322
42895W        W84906  22.429  24.261   8.322
42896W        W84907  20.269  11.404   7.472
42897W        W84908   5.319   5.074   9.382
42898W        W84909   0.829  15.334  12.012
42899W        W84910  20.649   6.114   2.502
42900W        W84911  16.009  16.254   4.192
42901W        W84912  10.319   5.004   0.518
42902W        W84913  12.079  24.371  10.282
42903W        W84914  13.709  15.364   9.452
42904W        W84915  22.749  14.084   0.638
42905W        W84916   2.629   7.554   7.242
42906W        W84917   8.179  10.684   0.628
42907W        W84918   5.749   1.934  10.632
42908W        W84919  13.239   7.724   9.772
42909W        W84920  22.099  19.424   2.238
42910W        W84921  18.599   8.024   9.682
42911W        W84922  12.309  15.414  10.382
42912W        W84923  24.519  13.574   8.242
42913W        W84924   4.989  19.564  10.242
42914W        W84925  14.919   8.224   9.282
42915W        W84926  22.729  16.314   3.142
42916W        W84927   0.699  11.124  10.042
42917W        W84928  20.799  21.074   7.932
42918W        W84929  19.569  13.294   7.332
42919W        W84930  19.839  15.714   2.572
42920W        W84931  13.549   6.984   3.392
42921W        W84932  20.949  11.934  11.002
42922W        W84933  24.279  25.341   9.842
42923W        W84934  14.759  17.934   1.288
42924W        W84935  22.419   5.534  10.272
42925W        W84936  17.419   0.084   3.092
42926W        W84937   0.011  23.851   0.378
42927W        W84938   1.519   2.604  15.272
42928W        W84939  13.789  21.731  11.182
42929W        W84940   9.229  14.504   2.218
42930W        W84941  21.809  20.924  11.452
42931W        W84942  23.279   5.644   2.108
42932W        W84943   4.379  16.174   1.908
42933W        W84944   5.129  24.971   2.098
42934W        W84945  21.979  22.031   1.388
42935W        W84946   7.609  10.604   1.568
42936W        W84947   6.259   3.634   0.538
42937W        W84948  18.549  10.624  10.592
42938W        W84949  13.249  23.771   2.972
42939W        W84950  20.099  23.061   8.492
42940W        W84951   9.499  21.084   0.658
42941W        W84952   5.629  16.184   8.872
42942W        W84953   4.399   4.284   9.602
42943W        W84954  11.149   0.774  15.862
42944W        W84955  13.179  12.064  14.312
42945W        W84956  20.779  18.874   8.352
42946W        W84957   7.829  23.701   3.832
42947W        W84958  16.249  15.384   9.172
42948W        W84959   8.979   3.364   0.028
42949W        W84960  15.509  21.104   0.588
42950W        W84961  12.319   2.584   3.322
42951W        W84962  11.809  12.044   0.008
42952W        W84963  16.019  19.954   8.422
42953W        W84964   5.139   4.454   8.292
42954W        W84965  18.539   4.284  14.932
42955W        W84966  12.319   1.724   9.022
42956W        W84967  16.979   0.104   3.332
42957W        W84968  12.139  24.921  11.652
42958W        W84969  14.449  15.094   3.712
42959W        W84970  10.559   6.664   9.392
42960W        W84971  11.589  10.414   9.792
42961W        W84972   1.249   8.844   9.002
42962W        W84973   9.129  23.571  15.092
42963W        W84974   9.389  19.944   9.702
42964W        W84975   2.389   9.494   8.392
42965W        W84976   6.939   5.174   0.668
42966W        W84977   2.449  20.414   8.002
42967W        W84978  18.659   3.874   2.398
42968W        W84979  11.149   5.894  10.782
42969W        W84980  23.109  16.754  12.482
42970W        W84981  24.839  16.704   3.812
42971W        W84982   8.679  22.671   3.742
42972W        W84983   5.749  13.504   0.768
42973W        W84984  14.449  23.371   2.318
42974W        W84985  10.859  21.731  10.372
42975W        W84986   4.499  22.281   8.122
42976W        W84987  14.529   0.784  15.452
42977W        W84988  11.229   5.684   8.142
42978W        W84989  17.479  11.314  15.592
42979W        W84990  12.259  11.814   4.682
42980W        W84991   7.239  14.184   9.742
42981W        W84992  18.469  10.204   0.838
42982W        W84993  16.059   1.794   0.448
42983W        W84994  21.619   0.694  12.162
42984W        W84995  22.049  22.221  11.672
42985W        W84996   5.289  17.594   4.172
42986W        W84997  12.869  13.744   0.568
42987W        W84998  23.479   1.824   8.102
42988W        W84999  20.429  16.964   8.862
42989W        W85000  11.699  12.714   9.162
42990W        W85001   3.309   0.254  10.352
42991W        W85002   5.999  22.331   1.998
42992W        W85003   0.829  22.991  10.022
42993W        W85004   1.509  19.634   8.002
42994W        W85005   0.299  21.871   8.162
42995W        W85006   5.639  14.634   2.348
42996W        W85007   2.969   3.304  11.312
42997W        W85008  22.159   8.394   8.902
42998W        W85009  20.339   7.694   1.648
42999W        W85010  10.919   9.244   4.022
43000W        W85011   6.399  18.694   4.242
43001W        W85012   8.869  11.664   0.938
43002W        W85013  18.399  20.494   1.868
43003W        W85014   8.029   5.924   8.812
43004W        W85015   3.759   0.784   7.912
43005W        W85016   2.789   6.474   8.682
43006W        W85017   2.579   8.804   2.188
43007W        W85018   3.359   2.044  11.192
43008W        W85019   6.559  18.694   0.698
43009W        W85020   8.749  14.554   4.032
43010W        W85021   6.169   8.894   2.952
43011W        W85022  18.619   2.684  15.412
43012W        W85023   8.659  22.491   1.408
43013W        W85024  23.969   7.554   7.892
43014W        W85025  16.269   0.224   1.758
43015W        W85026  10.839  18.034   3.742
43016W        W85027  14.539   0.464  10.492
43017W        W85028   0.309  22.551   8.362
43018W        W85029   5.959   0.854   3.292
43019W        W85030   7.969   4.724   1.498
43020W        W85031  16.559  21.054   1.848
43021W        W85032  22.309   7.564   7.442
43022W        W85033  20.489  19.854   9.622
43023W        W85034  11.189  15.194   2.208
43024W        W85035  15.489   4.984   8.152
43025W        W85036   6.869  18.234  10.612
43026W        W85037  14.519  10.944   4.312
43027W        W85038  23.219   1.594  11.812
43028W        W85039  14.379  17.724   4.432
43029W        W85040  23.749   7.704   0.238
43030W        W85041  15.579  19.124   9.222
43031W        W85042   4.939  21.501   3.192
43032W        W85043  17.389   1.194  15.102
43033W        W85044   0.819  16.604   8.562
43034W        W85045  17.409  17.854  15.842
43035W        W85046   7.869  24.411   4.132
43036W        W85047  17.789   0.314  11.122
43037W        W85048   3.599  12.224  10.052
43038W        W85049   3.779  19.924   9.522
43039W        W85050  18.719   3.284   1.978
43040W        W85051   6.949  21.541   1.548
43041W        W85052  12.089  11.324   1.008
43042W        W85053  23.779  24.621  12.342
43043W        W85054   7.439  14.694   1.758
43044W        W85055  20.009  14.384   9.802
43045W        W85056  25.229  12.274   9.882
43046W        W85057  17.689  18.844   2.038
43047W        W85058   2.019  10.074   7.752
43048W        W85059   1.189   5.854   2.098
43049W        W85060  14.909   3.344   9.722
43050W        W85061  22.889  12.524  15.192
43051W        W85062  25.479   0.074  12.162
43052W        W85063  13.419  22.341  10.052
43053W        W85064  19.499   8.274   2.942
43054W        W85065  14.199  15.494   9.602
43055W        W85066  14.029   5.354   8.502
43056W        W85067  10.379   3.174  15.072
43057W        W85068  11.259   2.734   4.232
43058W        W85069  23.709  15.484  10.072
43059W        W85070  15.429  25.011  10.392
43060W        W85071  18.069   4.104  10.052
43061W        W85072  22.729   3.554  10.132
43062W        W85073   5.729   6.034  15.602
43063W        W85074  18.239   8.894   2.912
43064W        W85075  23.629  22.031  11.302
43065W        W85076  20.129  21.581   0.158
43066W        W85077  24.769  13.774   3.102
43067W        W85078   2.909   1.994   9.842
43068W        W85079   8.449   1.814   8.962
43069W        W85080   6.319  18.104   8.662
43070W        W85081  24.289   1.644   9.662
43071W        W85082   9.469   1.364   8.652
43072W        W85083  25.389  18.204   2.128
43073W        W85084  17.189   9.964   9.742
43074W        W85085   7.939   7.274   0.648
43075W        W85086  24.619  21.541   2.552
43076W        W85087   2.009  20.154   3.032
43077W        W85088  22.299  24.881  11.012
43078W        W85089  14.709   0.884   3.222
43079W        W85090   9.459   3.164  15.312
43080W        W85091  19.979   9.434  15.132
43081W        W85092   8.659  15.064   2.702
43082W        W85093  22.179   3.364  10.802
43083W        W85094  21.779   7.254   9.512
43084W        W85095  24.929   3.214  11.752
43085W        W85096   8.619   0.554   9.682
43086W        W85097   6.549  10.414  10.572
43087W        W85098  12.199  13.344   1.838
43088W        W85099  24.149  12.804  10.972
43089W        W85100  21.999   4.874   7.692
43090W        W85101  13.809  22.851  15.032
43091W        W85102  20.159   4.514   1.608
43092W        W85103  15.109  14.894   2.048
43093W        W85104  21.359  19.034   2.712
43094W        W85105  13.359  21.094   0.878
43095W        W85106   3.049   4.934   1.708
43096W        W85107  17.769  11.194   0.208
43097W        W85108  24.599  20.114   2.532
43098W        W85109  19.229  20.004   8.142
43099W        W85110   6.039   5.804   8.442
43100W        W85111  13.049  24.421   9.762
43101W        W85112  18.139  13.564  11.732
43102W        W85113  17.909   6.474  10.282
43103W        W85114  12.049   8.324   8.742
43104W        W85115   4.889  10.924   0.178
43105W        W85116   2.469   2.304  11.512
43106W        W85117  19.239  10.834   0.818
43107W        W85118   5.149  23.451   0.938
43108W        W85119  15.899   5.934   8.642
43109W        W85120  14.149  15.174   1.098
43110W        W85121  24.749  17.584   3.742
43111W        W85122   3.049   0.704  11.252
43112W        W85123   8.539  23.341   0.288
43113W        W85124   9.839  24.071  11.572
43114W        W85125   6.149  10.214  10.752
43115W        W85126   4.979  15.334  15.062
43116W        W85127  10.929   5.734   1.278
43117W        W85128  12.009   8.374  15.122
43118W        W85129  10.129  19.404   9.862
43119W        W85130  14.689  19.854   7.832
43120W        W85131  11.979  21.411   1.288
43121W        W85132  13.749  14.934   9.112
43122W        W85133   5.459   7.834  10.902
43123W        W85134  17.409  11.664   3.622
43124W        W85135  16.489  16.594  10.062
43125W        W85136  22.059  19.834   8.472
43126W        W85137  10.219  24.001  10.352
43127W        W85138  17.679  19.424   8.052
43128W        W85139  16.759  19.694   8.942
43129W        W85140  18.469  14.404   0.888
43130W        W85141  19.009   1.234   3.432
43131W        W85142  23.729  18.674   7.732
43132W        W85143   8.739   9.534   4.242
43133W        W85144  18.499  16.794   7.912
43134W        W85145  11.869   8.184   2.318
43135W        W85146  22.979  18.744   1.948
43136W        W85147   1.919   8.604   8.422
43137W        W85148  18.089  22.101  11.652
43138W        W85149  19.179  16.354  10.442
43139W        W85150  11.259  19.454   2.208
43140W        W85151  21.059  23.101   7.972
43141W        W85152   8.249   9.334   2.902
43142W        W85153  23.289   0.394   8.272
43143W        W85154   7.899  17.594  15.562
43144W        W85155  12.099  16.764   9.322
43145W        W85156  13.069   7.264  15.602
43146W        W85157  17.739  14.464   1.638
43147W        W85158  24.959  22.591   9.342
43148W        W85159   4.449  19.434   8.932
43149W        W85160   3.789  20.644  11.202
43150W        W85161   0.639  20.534   2.258
43151W        W85162   4.569  19.374  11.152
43152W        W85163   8.629  25.491   1.958
43153W        W85164   3.409  20.044  12.302
43154W        W85165  10.069  24.151   3.132
43155W        W85166   6.769  15.254   2.512
43156W        W85167  23.189   8.664   1.058
43157W        W85168  15.459  23.101   7.562
43158W        W85169  10.389  20.134   9.742
43159W        W85170  21.019   6.904   7.122
43160W        W85171  16.829   2.344   9.032
43161W        W85172   8.229  11.474   3.922
43162W        W85173   1.859   9.864   2.448
43163W        W85174   9.919  25.571   3.062
43164W        W85175   9.659  17.464   1.648
43165W        W85176  12.019  19.234   1.558
43166W        W85177   4.149  20.294   9.572
43167W        W85178  22.459   7.444   0.408
43168W        W85179   2.389  21.791   9.602
43169W        W85180   4.669  24.861   8.572
43170W        W85181  11.919   6.614   1.568
43171W        W85182  11.919   5.064  10.812
43172W        W85183  15.729   0.984   3.092
43173W        W85184   3.779  24.501  10.452
43174W        W85185   1.479  13.444   9.282
43175W        W85186  13.789  14.124  15.662
43176W        W85187   7.539  21.481   8.522
43177W        W85188   2.739  23.671  15.442
43178W        W85189   7.139  11.564   8.912
43179W        W85190  10.869  18.694   4.012
43180W        W85191  17.919   2.744   7.802
43181W        W85192   2.649  16.694   2.722
43182W        W85193  17.919  24.041   9.392
43183W        W85194   1.069  11.424   3.302
43184W        W85195  15.879   9.344   1.958
43185W        W85196   8.279   2.624   2.752
43186W        W85197   9.669  23.381   1.588
43187W        W85198   0.069  11.534   0.528
43188W        W85199  15.369  12.234   3.132
43189W        W85200   8.219  20.864   2.982
43190W        W85201  22.339  14.314   0.918
43191W        W85202   2.219   0.344   7.202
43192W        W85203  19.089   3.744   0.158
43193W        W85204   0.989   2.084   1.388
43194W        W85205  24.569  19.994   0.918
43195W        W85206   3.789  23.171   0.828
43196W        W85207  25.379   7.934   7.212
43197W        W85208   6.969  22.081   0.198
43198W        W85209  18.989  10.774  10.872
43199W        W85210   1.619  14.444   2.652
43200W        W85211  17.579  24.711   3.432
43201W        W85212   0.909   9.674  10.442
43202W        W85213   8.209  10.304   3.192
43203W        W85214  14.149   2.854   3.882
43204W        W85215   6.789  10.864   7.802
43205W        W85216  15.329   1.904   1.478
43206W        W85217  15.989  16.784  10.062
43207W        W85218  11.709   9.034   0.988
43208W        W85219  23.769  23.681   7.732
43209W        W85220   9.049   3.444   0.868
43210W        W85221  15.119   8.674   0.518
43211W        W85222  21.089  10.284   9.502
43212W        W85223   4.289   1.804  11.342
43213W        W85224  14.379  24.561   0.028
43214W        W85225  19.109  10.054   0.108
43215W        W85226   2.479  14.774  11.682
43216W        W85227  22.529   9.184  10.862
43217W        W85228   4.589  10.534   8.322
43218W        W85229  23.359  14.654  10.842
43219W        W85230  15.809  14.954  10.412
43220W        W85231  22.549  18.544  12.492
43221W        W85232   7.989  25.471   1.228
43222W        W85233   9.179  15.954   0.388
43223W        W85234   9.739  12.364   2.048
43224W        W85235   8.789  20.604   2.832
43225W        W85236  24.179  22.711   2.612
43226W        W85237  14.729   6.634  14.882
43227W        W85238   7.409  25.401   3.782
43228W        W85239  10.879  10.634   4.312
43229W        W85240  22.999  13.674   3.282
43230W        W85241  17.929   0.854   2.732
43231W        W85242   9.469  22.111  15.762
43232W        W85243  12.949   0.004   9.882
43233W        W85244  18.559  15.344   0.278
43234W        W85245  13.879   0.984   9.202
43235W        W85246  21.249  17.514   7.192
43236W        W85247  23.499   3.514   9.862
43237W        W85248  10.639   4.354   3.302
43238W        W85249   8.189   4.944  15.412
43239W        W85250   8.779  17.414   0.158
43240W        W85251  19.209  24.431  11.122
43241W        W85252   2.559   2.544   3.102
43242W        W85253  25.239  20.644   2.018
43243W        W85254   0.419   8.464   6.442
43244W        W85255  24.269   4.904  10.892
43245W        W85256  16.889  15.124   2.962
43246W        W85257   5.379  18.264   7.842
43247W        W85258   1.219  15.244   0.408
43248W        W85259   1.379  25.131   9.682
43249W        W85260  11.349  22.771   1.868
43250W        W85261  18.009   0.054  10.752
43251W        W85262  21.619  19.304  11.952
43252W        W85263  20.589  24.611   3.212
43253W        W85264   5.199   3.224  10.352
43254W        W85265   4.539  18.234  11.062
43255W        W85266   0.939   7.134   8.942
43256W        W85267  20.969   0.554   3.052
43257W        W85268  17.929   3.714   3.032
43258W        W85269   5.409  11.704   0.698
43259W        W85270   8.729  12.514   9.942
43260W        W85271   0.169   3.184   9.732
43261W        W85272   4.419   0.634   7.662
43262W        W85273  21.879   8.634   0.598
43263W        W85274   5.599  12.874   2.078
43264W        W85275  21.679  17.994   9.222
43265W        W85276   0.719  14.894  10.492
43266W        W85277  19.039  19.934   7.682
43267W        W85278  14.209   2.854   9.422
43268W        W85279  16.079   0.944   9.342
43269W        W85280  23.579  17.634   0.298
43270W        W85281  20.339   3.934   2.812
43271W        W85282  16.919   5.834  15.592
43272W        W85283  23.739   0.254   7.962
43273W        W85284   1.399  21.234   8.822
43274W        W85285  12.609  13.164   2.228
43275W        W85286   3.659  21.911   1.798
43276W        W85287  16.139  24.621  11.272
43277W        W85288  22.489  23.771   8.462
43278W        W85289  23.329  10.884   2.822
43279W        W85290   4.509   7.414   7.312
43280W        W85291  25.559   7.774   2.018
43281W        W85292  10.739  23.061  11.292
43282W        W85293  16.489  15.814   9.382
43283W        W85294   0.609  13.374   3.422
43284W        W85295   6.269   3.894   2.862
43285W        W85296  11.409  22.091   9.052
43286W        W85297   7.459  11.034   1.378
43287W        W85298  15.429  18.494  11.262
43288W        W85299  25.119  25.031  10.982
43289W        W85300  14.529   6.554  14.362
43290W        W85301   3.999  18.734  10.082
43291W        W85302  15.259  22.311   2.892
43292W        W85303  17.519  23.681   9.372
43293W        W85304  21.699   4.504   9.812
43294W        W85305  10.339  16.394  10.062
43295W        W85306  20.539   9.284   2.712
43296W        W85307   9.449  14.334  15.332
43297W        W85308   6.959   9.224  15.002
43298W        W85309  23.619   5.274   2.288
43299W        W85310  12.109   2.064   9.942
43300W        W85311   4.629   6.454   8.312
43301W        W85312  15.189  17.764   8.962
43302W        W85313  20.109   8.014   0.888
43303W        W85314   3.009  17.384  11.002
43304W        W85315  12.999  21.421  15.552
43305W        W85316  24.759   3.994  11.102
43306W        W85317   2.599   8.484   9.202
43307W        W85318  25.349  17.364   2.038
43308W        W85319  22.419  10.084   2.228
43309W        W85320  23.679  13.474  15.772
43310W        W85321  13.269  20.744   4.452
43311W        W85322  23.689  12.644  10.312
43312W        W85323   1.069  17.924   0.848
43313W        W85324  25.369  22.771   3.062
43314W        W85325  16.929   2.254   0.468
43315W        W85326   2.789  24.751  11.722
43316W        W85327  17.219  23.011  10.172
43317W        W85328  16.119  13.754   3.142
43318W        W85329   9.389  10.694   9.632
43319W        W85330   6.239   7.734  15.722
43320W        W85331   7.469   3.104   9.302
43321W        W85332  21.849  21.044   3.752
43322W        W85333  21.459  12.404   7.932
43323W        W85334   2.549   0.354  10.992
43324W        W85335   3.069   6.184   8.382
43325W        W85336  10.419  20.114   1.468
43326W        W85337  15.139  12.704  15.002
43327W        W85338   0.289  10.914   9.132
43328W        W85339   3.319  13.664   9.112
43329W        W85340  21.359  25.401   2.742
43330W        W85341  11.659  11.794   2.782
43331W        W85342  20.909  25.341   9.842
43332W        W85343   6.569  10.994   8.232
43333W        W85344  18.249  21.611   2.168
43334W        W85345  19.049  15.524   9.952
43335W        W85346   3.799   8.394  10.362
43336W        W85347  15.149  11.534  14.332
43337W        W85348  16.659   2.244  10.772
43338W        W85349  14.819  21.991  11.322
43339W        W85350   0.699  10.044   1.878
43340W        W85351   8.859  14.614   9.702
43341W        W85352  24.389   3.404   2.942
43342W        W85353  12.609  18.524  10.462
43343W        W85354  18.409   5.684   2.852
43344W        W85355  19.949  20.904   7.302
43345W        W85356  18.159  11.064   3.262
43346W        W85357   3.259   4.634   3.252
43347W        W85358   5.459   0.074   2.652
43348W        W85359  24.359  15.304   9.782
43349W        W85360  13.749   8.754   3.802
43350W        W85361  21.249   6.754  15.042
43351W        W85362  16.139  18.884   3.542
43352W        W85363  11.649  11.304   9.132
43353W        W85364  20.569  23.391   0.938
43354W        W85365  17.359  10.314   1.428
43355W        W85366  11.559   4.154   9.542
43356W        W85367  25.249  22.861  10.722
43357W        W85368   5.909  22.871   1.118
43358W        W85369  21.979  17.304   1.398
43359W        W85370   1.289  23.431   8.742
43360W        W85371  19.349  16.164   3.322
43361W        W85372  10.209  13.424   1.138
43362W        W85373   4.859  18.204  10.382
43363W        W85374  17.239  12.164  11.022
43364W        W85375  21.359   5.504   0.568
43365W        W85376   0.639  23.191   2.088
43366W        W85377   4.579   5.184   1.068
43367W        W85378  11.009  21.931   1.418
43368W        W85379   4.959  17.454   1.348
43369W        W85380  10.049   6.394   2.962
43370W        W85381   6.399  24.011   1.358
43371W        W85382  25.049   2.614  11.132
43372W        W85383  18.549   9.384   2.308
43373W        W85384  14.739  10.334   9.692
43374W        W85385   8.989  22.171  10.152
43375W        W85386   5.819   3.864   9.122
43376W        W85387   6.769  16.314   9.922
43377W        W85388   7.289  23.741   2.982
43378W        W85389   9.969  21.951   4.922
43379W        W85390   0.799  24.681  10.452
43380W        W85391  16.919  10.564   2.842
43381W        W85392  15.149  16.574   9.862
43382W        W85393   0.839   9.534   1.148
43383W        W85394  17.299  22.301   0.588
43384W        W85395  19.189   9.654  10.272
43385W        W85396  21.679   9.634   8.392
43386W        W85397   5.089  19.654   1.158
43387W        W85398   5.809  19.414   3.872
43388W        W85399  10.929  22.371   3.372
43389W        W85400  25.429  14.974   0.428
43390W        W85401   3.369   8.534   3.202
43391W        W85402  16.029  17.914   1.838
43392W        W85403   9.639  23.851   1.358
43393W        W85404   0.229  14.354  15.242
43394W        W85405   8.949  18.644   8.472
43395W        W85406  20.629   2.004   9.062
43396W        W85407   7.159  15.904   1.038
43397W        W85408   4.389  20.284   1.948
43398W        W85409  11.149  17.884   2.018
43399W        W85410   0.689   1.844  11.802
43400W        W85411   1.129  10.664   7.802
43401W        W85412   3.379  11.994   8.602
43402W        W85413   0.639   9.424   8.722
43403W        W85414  16.339   6.074  10.592
43404W        W85415   6.199  23.211   9.612
43405W        W85416   0.169  12.654   0.618
43406W        W85417   5.449  21.244   9.212
43407W        W85418   1.139  17.224   1.108
43408W        W85419   4.989  18.684   0.688
43409W        W85420   7.069  16.944   9.192
43410W        W85421   1.729  20.214   0.668
43411W        W85422   6.159   2.994  15.672
43412W        W85423   6.949   1.894   9.292
43413W        W85424  24.729   4.624   8.522
43414W        W85425   1.869  11.244   1.518
43415W        W85426   4.639   2.874   8.262
43416W        W85427   3.479  22.301   0.858
43417W        W85428   0.309   8.354   1.418
43418W        W85429  12.389  10.344   0.868
43419W        W85430  11.589  23.771   3.652
43420W        W85431  18.269  12.704  11.122
43421W        W85432  12.609  20.094   8.452
43422W        W85433   9.179  25.211  15.542
43423W        W85434  15.019  22.341   7.892
43424W        W85435  23.999  12.754  15.002
43425W        W85436  18.819  24.501   2.742
43426W        W85437  10.839  18.744   9.432
43427W        W85438  15.649   0.074  15.282
43428W        W85439  16.429   7.824   2.288
43429W        W85440  20.669  15.054   2.772
43430W        W85441  24.949  13.414   8.372
43431W        W85442  12.179  11.844  14.222
43432W        W85443  20.629  21.481   8.192
43433W        W85444   0.589  24.471   3.502
43434W        W85445  13.379   4.074   0.008
43435W        W85446  22.659  24.681   1.318
43436W        W85447  25.049  15.514   4.032
43437W        W85448  19.699  19.944   0.508
43438W        W85449  23.309   5.004   2.562
43439W        W85450  14.489  17.824   3.892
43440W        W85451  13.779   1.304   8.822
43441W        W85452  17.499   5.824   1.598
43442W        W85453  18.749   1.404  15.062
43443W        W85454  13.199   9.434   2.702
43444W        W85455   6.799  23.811   7.862
43445W        W85456  19.149   2.204   0.528
43446W        W85457   2.489  21.761  15.212
43447W        W85458  12.579   1.664  14.852
43448W        W85459  23.949   5.834   2.872
43449W        W85460  11.319  10.344   8.902
43450W        W85461   3.519   8.324   9.202
43451W        W85462  14.579   8.554   9.012
43452W        W85463  12.189  21.611   0.638
43453W        W85464   9.749   9.494   4.392
43454W        W85465  13.019  14.184   2.952
43455W        W85466  22.679  18.094   8.662
43456W        W85467   7.059  23.621   8.222
43457W        W85468  16.169  16.434   9.702
43458W        W85469  21.209  15.834   1.718
43459W        W85470   8.279  17.314   0.168
43460W        W85471  15.589  10.074  14.252
43461W        W85472  15.949   8.424   2.602
43462W        W85473  11.289   5.004  15.142
43463W        W85474   7.709   7.634   8.692
43464W        W85475  14.159  22.651   8.312
43465W        W85476  22.389  19.724   0.608
43466W        W85477  19.669  17.034  10.672
43467W        W85478  22.159  17.784   2.672
43468W        W85479  14.839  18.574  10.442
43469W        W85480   6.479   6.264   0.278
43470W        W85481   6.849   7.274  15.002
43471W        W85482  15.209   2.704   9.302
43472W        W85483  21.749   9.104   9.182
43473W        W85484  20.769  21.441   8.752
43474W        W85485   9.709  20.344   8.922
43475W        W85486   2.919  15.784   0.518
43476W        W85487  17.149  22.061   1.998
43477W        W85488   3.129  22.231   3.282
43478W        W85489   3.049   3.654  10.022
43479W        W85490  24.549  20.264   2.088
43480W        W85491  22.519  21.204  15.652
43481W        W85492   5.979   6.584   8.762
43482W        W85493   8.799   5.304   0.778
43483W        W85494  14.209   9.994   9.222
43484W        W85495  10.319  25.551   1.238
43485W        W85496  14.149  20.264   2.622
43486W        W85497  24.139   5.754  10.702
43487W        W85498  24.359  11.444   1.958
43488W        W85499   4.809  12.694   9.462
43489W        W85500   2.409  18.024   0.308
43490W        W85501  14.329   0.024   9.192
43491W        W85502  20.929   1.424   9.202
43492W        W85503  16.059  13.294   9.052
43493W        W85504   4.019   9.774  11.452
43494W        W85505   6.439  20.344   1.388
43495W        W85506   6.379   2.734   8.092
43496W        W85507  14.249  12.364  14.802
43497W        W85508   7.659   1.174  15.852
43498W        W85509  11.839   5.574   0.038
43499W        W85510   4.109  13.234  14.492
43500W        W85511   0.199   9.504   8.202
43501W        W85512  20.619  20.474   7.282
43502W        W85513  21.449   8.904   0.618
43503W        W85514  13.329  21.691   8.752
43504W        W85515   1.599  23.961   8.562
43505W        W85516  17.279   9.834   1.538
43506W        W85517   1.699  23.091  10.722
43507W        W85518   5.599  25.551  15.512
43508W        W85519  12.959  24.341   2.982
43509W        W85520  17.249  24.391   3.192
43510W        W85521  23.959  10.854   0.338
43511W        W85522  15.309  12.214   0.068
43512W        W85523  23.639   7.714  10.632
43513W        W85524  23.179   7.474  11.312
43514W        W85525   1.069  17.974   9.922
43515W        W85526  23.739   4.014   1.148
43516W        W85527  25.089  14.724  11.682
43517W        W85528   8.899   2.594   9.942
43518W        W85529   7.569  17.184   2.378
43519W        W85530  18.629  18.094   3.172
43520W        W85531  19.789  24.201   2.478
43521W        W85532   2.059  24.801   3.012
43522W        W85533   2.669  12.394  10.672
43523W        W85534  16.409   6.984   9.752
43524W        W85535  17.279   5.334   8.332
43525W        W85536  21.569   4.784  10.432
43526W        W85537   0.589  24.371   2.642
43527W        W85538  11.169  22.101   0.358
43528W        W85539  24.129   4.304  10.562
43529W        W85540  12.699  15.794   0.268
43530W        W85541  24.339   4.174   6.802
43531W        W85542  23.899  15.144   4.112
43532W        W85543  16.719  23.351   7.142
43533W        W85544   7.649  22.181   1.368
43534W        W85545   5.119  16.324   8.782
43535W        W85546  17.719   4.754  14.962
43536W        W85547   2.099   8.614  14.882
43537W        W85548  12.219   2.254   3.792
43538W        W85549  23.939   4.344   2.038
43539W        W85550   7.219  13.934   2.962
43540W        W85551  21.449   6.464   7.192
43541W        W85552   2.399  21.354   0.078
43542W        W85553  16.439   2.094   1.798
43543W        W85554   9.919   7.004   8.232
43544W        W85555   7.679  10.584  15.012
43545W        W85556  17.909  10.864   9.492
43546W        W85557   4.039  20.554   3.002
43547W        W85558   3.939   5.874   8.202
43548W        W85559  15.639   6.714   1.768
43549W        W85560  23.369  22.611   4.122
43550W        W85561  15.859  18.904   1.378
43551W        W85562  23.329   2.704   2.782
43552W        W85563   1.529  13.794  11.592
43553W        W85564  19.399  24.031  10.112
43554W        W85565  11.039  22.231   0.808
43555W        W85566   3.569  18.854   7.792
43556W        W85567  21.529   9.054  10.152
43557W        W85568  14.769  21.731   2.982
43558W        W85569  24.089  14.494  10.742
43559W        W85570   3.639  15.854  11.122
43560W        W85571  23.639   3.934   2.198
43561W        W85572  19.879  15.754   9.452
43562W        W85573  24.799   5.974   1.078
43563W        W85574  21.289   3.044   9.872
43564W        W85575   0.021  24.301   8.862
43565W        W85576  20.949  16.184   7.132
43566W        W85577   6.149   7.734   0.348
43567W        W85578  23.049  12.354   8.332
43568W        W85579  11.819  22.731  11.012
43569W        W85580   6.379  12.564  10.452
43570W        W85581  19.259  21.781   8.132
43571W        W85582  11.279   0.214  15.632
43572W        W85583   1.319   4.004   0.978
43573W        W85584   8.819  24.251  15.662
43574W        W85585   9.739  25.361   0.948
43575W        W85586  25.079   7.764  11.702
43576W        W85587  13.339   8.984  11.162
43577W        W85588  20.359  11.854  11.152
43578W        W85589  17.499  16.584   1.558
43579W        W85590  16.729   9.874   3.792
43580W        W85591   4.119  25.471   1.708
43581W        W85592  20.939  22.341   7.342
43582W        W85593  12.959  25.411   2.772
43583W        W85594  25.179   4.234   0.708
43584W        W85595  22.769   7.904  10.022
43585W        W85596   8.019  14.384   3.012
43586W        W85597  15.139  22.801   3.312
43587W        W85598  19.079   2.594   8.672
43588W        W85599   6.809  21.204   0.718
43589W        W85600   1.779   4.274   0.538
43590W        W85601   8.819  16.014  15.722
43591W        W85602  18.249   3.314   2.752
43592W        W85603  24.959   0.264  10.072
43593W        W85604   0.579  14.594   4.292
43594W        W85605  18.129   2.034   8.612
43595W        W85606  25.319  18.404   9.372
43596W        W85607   8.389  15.934  15.532
43597W        W85608  21.889   6.994   2.762
43598W        W85609  24.729  10.084   9.372
43599W        W85610   0.459  21.471  10.202
43600W        W85611  18.959   9.454   8.142
43601W        W85612  22.369  16.184   2.268
43602W        W85613   9.189  14.864  10.462
43603W        W85614  20.119  19.194  11.002
43604W        W85615   6.149  19.464   8.282
43605W        W85616  12.129  16.324  14.202
43606W        W85617   2.299  22.121   2.922
43607W        W85618   8.749  17.544   1.478
43608W        W85619  19.919  25.001   8.342
43609W        W85620   4.789   1.154   9.832
43610W        W85621  10.399  20.974  10.472
43611W        W85622   1.429   9.014  15.552
43612W        W85623  16.319   4.144   1.738
43613W        W85624   3.419   1.724   7.452
43614W        W85625   1.319  23.291  10.292
43615W        W85626   9.499   0.674  10.232
43616W        W85627   9.849  24.091  10.672
43617W        W85628  23.939  16.484  15.722
43618W        W85629   2.449  19.064  11.302
43619W        W85630  11.609   0.174  10.312
43620W        W85631  23.599  22.621   3.162
43621W        W85632  12.059   5.114   1.388
43622W        W85633   7.779  17.114  15.792
43623W        W85634  23.259   8.324   7.402
43624W        W85635   5.389  24.331   2.038
43625W        W85636   6.969   3.284   9.252
43626W        W85637  25.099   7.554  11.122
43627W        W85638  23.849  13.144  11.142
43628W        W85639  17.239   1.024   2.228
43629W        W85640   9.799  22.771   8.602
43630W        W85641  24.989   6.354  15.722
43631W        W85642  10.659  19.594  11.002
43632W        W85643  17.229   0.554   0.828
43633W        W85644  22.439  11.614   3.322
43634W        W85645  12.439  19.564   9.162
43635W        W85646  17.729  10.204  10.902
43636W        W85647  16.699  16.204  10.312
43637W        W85648  22.419  16.164   9.322
43638W        W85649  21.449  20.594   8.902
43639W        W85650  19.929  23.461   8.222
43640W        W85651   2.499   6.054   0.728
43641W        W85652  11.099  10.014   0.458
43642W        W85653  19.689   8.024   2.522
43643W        W85654  17.409   9.884  15.802
43644W        W85655   1.999  10.334   8.932
43645W        W85656   9.659   1.274   9.412
43646W        W85657   6.939  16.394   8.642
43647W        W85658  19.499  19.334   1.578
43648W        W85659  24.509  15.144   2.502
43649W        W85660  13.239  12.184   0.978
43650W        W85661  21.459  21.881   1.358
43651W        W85662   7.049  14.384   0.388
43652W        W85663  15.949  19.404   0.858
43653W        W85664   2.879   8.194   0.538
43654W        W85665  25.219  17.034  11.682
43655W        W85666  14.189  15.574  10.552
43656W        W85667  11.959  21.294  15.782
43657W        W85668   0.289  17.564   0.568
43658W        W85669   0.769  19.344  10.682
43659W        W85670  24.269  18.524  10.902
43660W        W85671  23.749  22.091  10.042
43661W        W85672  17.939  24.551  11.382
43662W        W85673  17.689   2.454   8.622
43663W        W85674  13.199  16.014   1.368
43664W        W85675  13.969  14.994   0.628
43665W        W85676   6.059   4.064   0.718
43666W        W85677  11.069   1.724  10.532
43667W        W85678  23.859   9.684   1.078
43668W        W85679   9.839  14.814  15.412
43669W        W85680  20.069  18.434   7.852
43670W        W85681  17.069  25.161   8.722
43671W        W85682   1.869  21.004   0.018
43672W        W85683   8.489  13.034   3.272
43673W        W85684   7.569   2.514  15.432
43674W        W85685  22.829  19.434   0.598
43675W        W85686  11.989  13.584  14.692
43676W        W85687  24.029  11.874   8.112
43677W        W85688  23.339   9.624   1.828
43678W        W85689  11.829   1.094  15.332
43679W        W85690  19.069  24.921  11.192
43680W        W85691   5.439  19.384  10.072
43681W        W85692  21.199   9.824  10.732
43682W        W85693   1.839  17.674   2.018
43683W        W85694  18.009   0.494   0.918
43684W        W85695  10.429  13.374  15.682
43685W        W85696   0.819  11.064   1.438
43686W        W85697  25.359   9.624  10.412
43687W        W85698   6.919  15.094  10.282
43688W        W85699   4.909   7.314  15.712
43689W        W85700  19.239  24.971   3.542
43690W        W85701  16.489  15.214  15.592
43691W        W85702  16.709  15.344   9.452
43692W        W85703   6.009  23.461  10.062
43693W        W85704  11.869  13.024   9.682
43694W        W85705  19.049   1.484   9.902
43695W        W85706   6.109  18.804   0.898
43696W        W85707  22.759   3.724   9.602
43697W        W85708  18.219   9.824   3.572
43698W        W85709  15.199   3.574   2.992
43699W        W85710   4.849  24.241   9.482
43700W        W85711  18.219  21.671  11.422
43701W        W85712  12.799  13.314   3.082
43702W        W85713  11.359   1.614   0.898
43703W        W85714   0.779  22.781   8.182
43704W        W85715  14.989   2.214   1.748
43705W        W85716  23.159   9.314   7.492
43706W        W85717   8.639  12.424  10.962
43707W        W85718  14.759   8.894   2.962
43708W        W85719  20.909  20.154   2.308
43709W        W85720   6.199   4.674   2.318
43710W        W85721   4.279  18.814   3.392
43711W        W85722  17.769   7.634   4.002
43712W        W85723   3.539  25.351   0.188
43713W        W85724   4.989  11.894  10.672
43714W        W85725  15.479  15.904  15.632
43715W        W85726  25.219   4.014   8.202
43716W        W85727   9.049  19.184   2.058
43717W        W85728  20.619  20.334   0.558
43718W        W85729   1.879  14.644   1.208
43719W        W85730  13.389  24.141   4.032
43720W        W85731  11.649  22.751   4.482
43721W        W85732  21.439  22.021   8.102
43722W        W85733  11.029  20.644  11.532
43723W        W85734  17.449  11.304   1.128
43724W        W85735  12.739  17.594  14.852
43725W        W85736  12.449  15.674   9.412
43726W        W85737  19.539   5.224   9.992
43727W        W85738   6.299   7.274   2.912
43728W        W85739   1.129   3.244   8.012
43729W        W85740  21.179   7.344  10.202
43730W        W85741   9.559   0.644   3.862
43731W        W85742  24.809  16.704  10.912
43732W        W85743  16.589  18.084   1.468
43733W        W85744   2.549  15.094  10.702
43734W        W85745  22.609  21.154   9.972
43735W        W85746  13.139   8.064   8.702
43736W        W85747  15.179  14.734   3.542
43737W        W85748   9.329   8.764   9.022
43738W        W85749  24.369  19.864   3.382
43739W        W85750  19.919   3.664   3.012
43740W        W85751   3.609  11.594   3.232
43741W        W85752  10.759  25.161   3.012
43742W        W85753  19.379   9.794   9.822
43743W        W85754  15.409  16.604   8.952
43744W        W85755  12.489  18.714  15.492
43745W        W85756   5.189   0.824  10.582
43746W        W85757  20.519   3.044   1.148
43747W        W85758  23.229   2.314   2.512
43748W        W85759  25.439   1.174  11.452
43749W        W85760   1.779  19.744  15.182
43750W        W85761  16.349  17.154  11.722
43751W        W85762   6.599  14.684   3.122
43752W        W85763  19.539   4.894  14.852
43753W        W85764   8.199  11.214   1.948
43754W        W85765  20.649   9.714   3.192
43755W        W85766  12.609  13.704   4.502
43756W        W85767  12.549  16.264  14.502
43757W        W85768  21.659   0.684  11.262
43758W        W85769  11.669  20.134   8.812
43759W        W85770   6.399  24.171   9.872
43760W        W85771  13.569   3.214   1.338
43761W        W85772   2.509  22.261   9.862
43762W        W85773  17.939  11.294   0.718
43763W        W85774  24.979   4.204  11.582
43764W        W85775  19.829  15.264  10.952
43765W        W85776  15.389   5.864  10.402
43766W        W85777   6.049  11.264   8.112
43767W        W85778  11.179   9.394   1.898
43768W        W85779   4.589   6.874   2.802
43769W        W85780  22.619   5.684   7.892
43770W        W85781  15.209   2.174  11.222
43771W        W85782  13.379   8.384   8.372
43772W        W85783   4.439  15.024   2.178
43773W        W85784   2.049  18.454   8.492
43774W        W85785  18.019   8.074   1.068
43775W        W85786   5.029   1.524   0.748
43776W        W85787  14.379   8.174   9.372
43777W        W85788  22.569   9.714   8.282
43778W        W85789  18.199   8.344   2.068
43779W        W85790   7.069  11.834  10.292
43780W        W85791  21.699  12.974  10.482
43781W        W85792   3.159  14.214   9.242
43782W        W85793   9.599   2.334   4.152
43783W        W85794  13.639   6.094   0.668
43784W        W85795  20.369  14.524  10.242
43785W        W85796  24.159   8.484  10.092
43786W        W85797   1.519  22.781   1.948
43787W        W85798  16.139  12.174   0.388
43788W        W85799  18.689   0.214   0.338
43789W        W85800  14.539   5.794   1.678
43790W        W85801  17.029   1.754   0.788
43791W        W85802  20.649  16.354  10.632
43792W        W85803  19.539  14.354   9.692
43793W        W85804  10.619  12.954   3.732
43794W        W85805  13.519  12.154  15.762
43795W        W85806  20.899  11.134  14.962
43796W        W85807  22.759  13.324   9.392
43797W        W85808   5.429   6.954   8.972
43798W        W85809  18.129  15.134  11.702
43799W        W85810  19.439  13.954   1.938
43800W        W85811  12.999  17.964   8.522
43801W        W85812   2.719  18.344  10.012
43802W        W85813  12.319   2.984   1.428
43803W        W85814  14.939  24.241   1.298
43804W        W85815   9.179   3.794   1.718
43805W        W85816  13.489   6.574   4.332
43806W        W85817   7.059  24.121  10.592
43807W        W85818  17.719  22.631   1.608
43808W        W85819   5.289  13.514  15.172
43809W        W85820  13.969  19.584   9.632
43810W        W85821  16.049  10.044   9.852
43811W        W85822  25.369   0.394   1.038
43812W        W85823   9.959  20.144  10.402
43813W        W85824   1.179  14.354   9.462
43814W        W85825  22.299  12.454   9.722
43815W        W85826  16.679   7.064   9.142
43816W        W85827  19.689   6.934  14.942
43817W        W85828  23.679   1.654   9.552
43818W        W85829   5.569  11.174   2.048
43819W        W85830   6.589   6.994   9.402
43820W        W85831  18.149   9.254   1.078
43821W        W85832   5.309  15.364   4.562
43822W        W85833  19.679  11.024  11.112
43823W        W85834  22.219   6.614   8.972
43824W        W85835  21.139  17.744   3.282
43825W        W85836   7.589  17.614   8.152
43826W        W85837   5.999  12.784   2.348
43827W        W85838  13.909  21.811   9.482
43828W        W85839  22.869   9.434   7.862
43829W        W85840  20.689  11.614   9.772
43830W        W85841  24.269  23.411   9.592
43831W        W85842  19.959   6.604   7.542
43832W        W85843  12.779   2.344  11.092
43833W        W85844   0.449  23.571   7.812
43834W        W85845   9.859  20.284   4.172
43835W        W85846  16.189  14.184   9.642
43836W        W85847  20.039   4.134   1.868
43837W        W85848  19.499   1.364   3.362
43838W        W85849   1.359   4.994   8.282
43839W        W85850   2.019  18.284   9.972
43840W        W85851   8.659  15.704   9.932
43841W        W85852   5.619  21.491   1.858
43842W        W85853  19.219  13.144  11.242
43843W        W85854  14.129  20.304   0.358
43844W        W85855   1.769  24.571   2.612
43845W        W85856   5.339   5.774   1.298
43846W        W85857   4.689  21.821   0.898
43847W        W85858   4.469  19.034  11.572
43848W        W85859  22.249   3.824   2.258
43849W        W85860  23.589  17.194   7.652
43850W        W85861  13.649  13.924   3.212
43851W        W85862  17.109   8.174  14.952
43852W        W85863  19.679   6.534   9.602
43853W        W85864  22.749   3.524   0.218
43854W        W85865   5.819   6.954   0.428
43855W        W85866   8.519  22.201  10.052
43856W        W85867  20.459  13.104   8.072
43857W        W85868   2.549  16.074   0.128
43858W        W85869   2.679  21.471   1.618
43859W        W85870  13.109  24.731   3.332
43860W        W85871   3.779  23.161  10.252
43861W        W85872  19.159  16.384   7.902
43862W        W85873  12.039  22.071   0.748
43863W        W85874   7.729   0.364  10.822
43864W        W85875  16.479   9.664  14.292
43865W        W85876  15.449   1.424  10.872
43866W        W85877  20.049  24.491  11.302
43867W        W85878   7.979  25.551  10.912
43868W        W85879   1.799  23.401  10.342
43869W        W85880  23.899   3.804   9.872
43870W        W85881   3.329  24.501   0.818
43871W        W85882  12.789  11.144   2.128
43872W        W85883   6.469  24.621   9.002
43873W        W85884  19.199  24.611   2.458
43874W        W85885   8.679  22.211  15.142
43875W        W85886   1.729  19.644   9.992
43876W        W85887  16.399   8.724   0.548
43877W        W85888   3.809  22.931   1.638
43878W        W85889   4.409   0.104   8.902
43879W        W85890  20.719  17.074  11.642
43880W        W85891  20.199   3.434  11.282
43881W        W85892  16.079   3.654  10.392
43882W        W85893   9.909  19.164   2.468
43883W        W85894  11.099  12.454   0.638
43884W        W85895  20.409   4.854   2.942
43885W        W85896   8.819   8.284   2.722
43886W        W85897  21.649  15.094  10.142
43887W        W85898  18.359  18.034   2.018
43888W        W85899  11.239   9.254   1.158
43889W        W85900   4.009  10.174   0.548
43890W        W85901  12.129   6.004  15.682
43891W        W85902  20.059  12.214   4.002
43892W        W85903   9.809   7.614   7.342
43893W        W85904  13.799   6.814  11.152
43894W        W85905   3.209  20.544   8.712
43895W        W85906   2.749   7.734  10.422
43896W        W85907  19.929  21.541  10.622
43897W        W85908  13.479  15.154   3.632
43898W        W85909   5.989  24.981  10.362
43899W        W85910  23.749   5.614   9.872
43900W        W85911  22.989  16.154   8.532
43901W        W85912  13.759  24.251  11.112
43902W        W85913  19.189   7.964   2.552
43903W        W85914  17.609   1.234   9.012
43904W        W85915  12.379   7.684   3.672
43905W        W85916   8.419  20.744   2.488
43906W        W85917  16.049   7.634   4.162
43907W        W85918  12.819   1.664   8.832
43908W        W85919   7.309  22.351  14.732
43909W        W85920  11.469   9.044  10.442
43910W        W85921  23.399   9.244   0.178
43911W        W85922  12.209   2.974   7.712
43912W        W85923  13.329  23.751  11.212
43913W        W85924  17.779   0.794  11.462
43914W        W85925  11.379  17.194   3.602
43915W        W85926   3.459  19.484  12.332
43916W        W85927  17.219  15.384  14.752
43917W        W85928  10.079  18.224   8.572
43918W        W85929  22.929  13.584   2.772
43919W        W85930   4.839  21.334   0.688
43920W        W85931   9.669  14.734  11.352
43921W        W85932  20.269   8.644   1.928
43922W        W85933  23.339  17.164   2.068
43923W        W85934   9.239  24.851   0.018
43924W        W85935  20.859   8.004   3.212
43925W        W85936   0.799  20.934   8.102
43926W        W85937   9.759  13.234  15.172
43927W        W85938  22.709  15.204   9.872
43928W        W85939  22.539  10.884   8.932
43929W        W85940  16.999   6.974   4.062
43930W        W85941  19.789  11.474  15.422
43931W        W85942   5.029  11.664  15.352
43932W        W85943  11.049  19.534   9.762
43933W        W85944  24.899   6.974   7.292
43934W        W85945   2.559  12.264   8.402
43935W        W85946  12.079  23.261   3.102
43936W        W85947  24.319  15.954  11.542
43937W        W85948   4.289   7.174   0.508
43938W        W85949  16.039   4.304   1.228
43939W        W85950  11.349  19.094  10.012
43940W        W85951   8.179   1.364  10.852
43941W        W85952   9.739  16.884   1.538
43942W        W85953  19.199  14.064   7.912
43943W        W85954   2.409  10.344  11.092
43944W        W85955  17.469   0.254   9.522
43945W        W85956   5.509  12.994   0.708
43946W        W85957   3.129  10.814   8.232
43947W        W85958   6.009  18.554  15.782
43948W        W85959  17.109  18.674   1.878
43949W        W85960   7.369  22.601   3.862
43950W        W85961  17.279  14.104   0.078
43951W        W85962   9.379   6.584   8.662
43952W        W85963   3.109  22.171   9.572
43953W        W85964  16.459   9.084  10.042
43954W        W85965   3.279  20.914   9.122
43955W        W85966   0.149  14.124  12.332
43956W        W85967  15.889   2.284   2.892
43957W        W85968   7.589  12.024   9.532
43958W        W85969  16.819   5.674   9.052
43959W        W85970   5.689  23.681   3.142
43960W        W85971  24.159   1.064  10.882
43961W        W85972   7.269  18.264   3.702
43962W        W85973   0.189  23.961  10.482
43963W        W85974   3.659   6.054   0.618
43964W        W85975  14.619  21.441   8.422
43965W        W85976  12.429  11.284   0.098
43966W        W85977   0.769   9.084   9.122
43967W        W85978   9.299  22.311   9.362
43968W        W85979   8.189   4.134   8.492
43969W        W85980   8.939   7.634   8.132
43970W        W85981  16.449   6.914  10.612
43971W        W85982  21.729  19.914  10.142
43972W        W85983   1.309   9.804   1.198
43973W        W85984  19.919  24.551   1.048
43974W        W85985  23.569  17.544  10.562
43975W        W85986  23.299  17.894   4.192
43976W        W85987   2.019  10.224  10.762
43977W        W85988   7.239   0.334  10.732
43978W        W85989   6.679   1.384   3.772
43979W        W85990   5.369   2.354  15.402
43980W        W85991  23.829   8.404   1.428
43981W        W85992  15.829  20.854   9.912
43982W        W85993   9.649  17.874   9.332
43983W        W85994   2.909  11.734  10.012
43984W        W85995  13.999  18.624   0.348
43985W        W85996   2.929   5.444   7.602
43986W        W85997   9.939  24.591   9.292
43987W        W85998   8.139   2.154   0.948
43988W        W85999  12.459  13.054   5.132
43989W        W86000  17.429   7.544  10.042
43990W        W86001   7.559   9.504   1.568
43991W        W86002   2.919   9.364   8.262
43992W        W86003  20.529  15.524  15.682
43993W        W86004   1.689  20.084   9.052
43994W        W86005   0.409  11.254   8.672
43995W        W86006   0.889   1.114   3.242
43996W        W86007   3.949  20.234   8.942
43997W        W86008  23.169   4.404   0.578
43998W        W86009   1.189   0.424  10.282
43999W        W86010   3.769  19.314  10.312
44000W        W86011   3.589  11.354   2.138
44001W        W86012   4.909  25.541   9.802
44002W        W86013  22.119  15.224   6.912
44003W        W86014   8.669  17.094  15.642
44004W        W86015  20.409  10.714  15.452
44005W        W86016   7.119  20.274  10.072
44006W        W86017  23.209   1.174  11.382
44007W        W86018  15.919   5.164   3.102
44008W        W86019   2.019  14.734   1.758
44009W        W86020  25.459   2.214  11.422
44010W        W86021   4.549   4.954   2.902
44011W        W86022  22.679  23.771  10.622
44012W        W86023   2.359  23.161   2.428
44013W        W86024   3.319   5.024   9.002
44014W        W86025   9.609   6.194   3.712
44015W        W86026  23.599  10.014  11.202
44016W        W86027   6.109   2.884   2.488
44017W        W86028  10.649  16.464   8.542
44018W        W86029   1.999  12.514   0.688
44019W        W86030  22.149  12.424   8.502
44020W        W86031   9.379   1.024   4.152
44021W        W86032  18.509   0.244   9.922
44022W        W86033   4.319  16.044   9.912
44023W        W86034  20.879   6.874   0.068
44024W        W86035  11.299  12.124   2.632
44025W        W86036  21.929  24.671   1.038
44026W        W86037  12.249   8.184  15.582
44027W        W86038   0.789  19.954   2.308
44028W        W86039  14.279   1.454   4.642
44029W        W86040   8.919  22.381   9.652
44030W        W86041   3.559   6.884   1.648
44031W        W86042   7.039   2.464  15.412
44032W        W86043  18.899   0.944   1.888
44033W        W86044   9.679   8.454   0.418
44034W        W86045  24.779  17.334  12.682
44035W        W86046   3.259   6.044   0.278
44036W        W86047   7.359  21.044   2.792
44037W        W86048   0.749  22.321   3.082
44038W        W86049   7.639  18.714   2.602
44039W        W86050  22.559   6.164   2.228
44040W        W86051  16.479  11.584   8.432
44041W        W86052  19.659  20.844  11.882
44042W        W86053  18.829  20.464  12.632
44043W        W86054   7.409   5.684   8.412
44044W        W86055   8.679   7.714   1.558
44045W        W86056  20.979   4.314   8.612
44046W        W86057  11.789  24.461   9.392
44047W        W86058  17.429  14.704   9.372
44048W        W86059   2.479  16.074   3.352
44049W        W86060  20.239  25.271   3.862
44050W        W86061   4.839  24.481   1.238
44051W        W86062  20.609  19.684   0.648
44052W        W86063   0.199  16.514   3.732
44053W        W86064   4.939  23.581   1.408
44054W        W86065  14.959  21.561  15.282
44055W        W86066   0.419  13.254   7.362
44056W        W86067  22.059   5.094  10.532
44057W        W86068   5.939  11.794   8.862
44058W        W86069  24.359   8.054   9.492
44059W        W86070   5.609  15.944   0.338
44060W        W86071   4.989  19.114   1.958
44061W        W86072   4.549   8.484   0.118
44062W        W86073  25.469   1.314   9.002
44063W        W86074   2.479  13.894   8.312
44064W        W86075  12.579  21.991   9.692
44065W        W86076  10.329  20.894   0.988
44066W        W86077  11.219  21.831  15.772
44067W        W86078  10.759  15.994  14.592
44068W        W86079   4.689   3.544   2.048
44069W        W86080  15.419  18.654   9.352
44070W        W86081   1.939   2.304   9.692
44071W        W86082   1.269  12.824   3.322
44072W        W86083  24.519  14.764   8.112
44073W        W86084   4.609   2.544   2.338
44074W        W86085  20.929  24.721   7.582
44075W        W86086  20.779  19.134   7.402
44076W        W86087  14.949  18.514   2.118
44077W        W86088  22.019   2.154   9.162
44078W        W86089  14.829  25.591  11.942
44079W        W86090  19.559   9.824   1.428
44080W        W86091  11.429   5.474   3.412
44081W        W86092  16.639  24.391  10.082
44082W        W86093  12.789  11.454   1.608
44083W        W86094   8.209  16.984   4.642
44084W        W86095  12.149  21.204   3.872
44085W        W86096   1.919  22.521   7.252
44086W        W86097  24.739   9.014   3.462
44087W        W86098  15.779  22.611   2.572
44088W        W86099   2.929  22.431  10.482
44089W        W86100   3.619  25.011   0.998
44090W        W86101   6.119  24.081   2.448
44091W        W86102  20.209  22.901   3.102
44092W        W86103   8.909  23.061   9.592
44093W        W86104  12.999  15.884   3.392
44094W        W86105   6.099  17.624  10.032
44095W        W86106  18.279  10.984   2.378
44096W        W86107  22.129  20.164   3.852
44097W        W86108  18.319  17.664  11.192
44098W        W86109  20.639   6.964   2.982
44099W        W86110  20.919  17.264  12.482
44100W        W86111   0.919   0.844   0.498
44101W        W86112  11.039  17.324  10.112
44102W        W86113  21.069  13.064   2.662
44103W        W86114   6.059  20.354   1.738
44104W        W86115  23.529   1.384   2.872
44105W        W86116  18.429  10.134   4.442
44106W        W86117  20.179  21.134  10.212
44107W        W86118  12.819   2.804  15.812
44108W        W86119  15.969  17.174  10.462
44109W        W86120  11.739  23.241  15.052
44110W        W86121  14.319  18.594  11.322
44111W        W86122  10.349   9.524   2.238
44112W        W86123   1.439  23.291   1.938
44113W        W86124  17.539  17.854   7.902
44114W        W86125   7.719  13.004   0.778
44115W        W86126  13.479  14.714   0.928
44116W        W86127  14.149   9.404   1.308
44117W        W86128  18.399   5.854  15.572
44118W        W86129  10.649  14.894  10.152
44119W        W86130  24.829  11.534   8.702
44120W        W86131  15.079   5.384   4.022
44121W        W86132   1.579  23.521   0.658
44122W        W86133  16.169  10.944   9.582
44123W        W86134  22.659   7.374   8.082
44124W        W86135  24.799  10.864   0.878
44125W        W86136  17.849  12.494   3.932
44126W        W86137   0.819   4.214  11.462
44127W        W86138   1.979  22.651  15.472
44128W        W86139  12.119  10.154   2.572
44129W        W86140   6.999  17.684  15.632
44130W        W86141  24.109  24.311   7.912
44131W        W86142   9.909   6.104  10.062
44132W        W86143   1.189  21.481   0.418
44133W        W86144   7.389  12.014   9.032
44134W        W86145  22.669   8.604   8.972
44135W        W86146  15.789  10.314   8.692
44136W        W86147  23.829  22.921   2.852
44137W        W86148  23.369  22.691   2.572
44138W        W86149  11.579   1.144   2.488
44139W        W86150  20.269  10.674  11.942
44140W        W86151  19.649  24.841  11.932
44141W        W86152  15.289   3.934   0.648
44142W        W86153  10.889  18.244   9.612
44143W        W86154  20.729  22.731   8.082
44144W        W86155  14.129   5.264  15.342
44145W        W86156   7.969  10.084  15.552
44146W        W86157  12.009  20.004   2.158
44147W        W86158  22.899   9.824   1.838
44148W        W86159  20.659  16.374   7.562
44149W        W86160  22.149   0.824   9.802
44150W        W86161  15.819  15.974  10.792
44151W        W86162   3.909  19.784  15.672
44152W        W86163   9.919   4.834  14.932
44153W        W86164  23.549  17.364  10.112
44154W        W86165  12.999   9.704   1.348
44155W        W86166  21.429   4.344  10.192
44156W        W86167  25.179  22.831   0.998
44157W        W86168  14.369  19.884  11.022
44158W        W86169  15.379   7.414   0.048
44159W        W86170  20.559   7.774   0.708
44160W        W86171  21.199   2.614   8.292
44161W        W86172  17.669   9.264   2.398
44162W        W86173  23.979  11.924   1.178
44163W        W86174   3.699  10.194   1.488
44164W        W86175  21.249   6.674   9.212
44165W        W86176   1.949   8.764   1.318
44166W        W86177  14.819   7.034  14.382
44167W        W86178   4.689  23.771   3.612
44168W        W86179  21.649   1.054  10.002
44169W        W86180  18.389  23.751  10.652
44170W        W86181  23.209  12.794   8.652
44171W        W86182   2.029  21.034   2.248
44172W        W86183  24.339   5.484   8.142
44173W        W86184   9.779  21.204   2.248
44174W        W86185  12.039   5.574   2.742
44175W        W86186   6.129  17.024   0.658
44176W        W86187  24.829  14.464   2.098
44177W        W86188  11.349  24.141   2.902
44178W        W86189  18.389  22.401  12.152
44179W        W86190  23.549  14.834   0.698
44180W        W86191   4.839   0.584   3.482
44181W        W86192  17.979   3.664   0.988
44182W        W86193  10.049  11.794   4.302
44183W        W86194  14.419  24.531  15.412
44184W        W86195   8.879   8.654  10.712
44185W        W86196   1.189  14.654   8.212
44186W        W86197  23.729  11.744   0.238
44187W        W86198   7.889  16.004  14.662
44188W        W86199   2.539  23.741  10.072
44189W        W86200   1.249  16.354   1.518
44190W        W86201   6.829  12.624   2.318
44191W        W86202  20.159  15.394   3.522
44192W        W86203  11.339   9.554   0.468
44193W        W86204  25.289   7.134   8.092
44194W        W86205  12.709   2.354   3.562
44195W        W86206  11.999   2.844  15.572
44196W        W86207   5.659  21.234  15.342
44197W        W86208  19.129  15.954   0.748
44198W        W86209  10.859   2.934  10.702
44199W        W86210   3.349   9.754   6.932
44200W        W86211   1.479  25.381  10.692
44201W        W86212  19.709  11.544   0.768
44202W        W86213  21.659   5.404  11.242
44203W        W86214   8.189   9.564   1.278
44204W        W86215  13.059  20.124  15.752
44205W        W86216   9.729  22.511   1.528
44206W        W86217  19.949  21.044  12.402
44207W        W86218  15.799   0.344  11.582
44208W        W86219  11.989  23.931   4.652
44209W        W86220  13.709   7.854   1.088
44210W        W86221  19.369  22.361   0.998
44211W        W86222  12.159   6.894  14.672
44212W        W86223   9.449  24.311   1.498
44213W        W86224  21.809   2.144   0.008
44214W        W86225  20.249   2.934   2.812
44215W        W86226   4.189  22.031   9.672
44216W        W86227  21.649  19.114   2.198
44217W        W86228   8.689   7.604   3.462
44218W        W86229   2.499  17.624   8.312
44219W        W86230   1.339  15.994   0.408
44220W        W86231  22.529   6.024   1.418
44221W        W86232  15.809  12.034  10.272
44222W        W86233  20.899  19.884  11.592
44223W        W86234   0.739  20.844   8.662
44224W        W86235  20.949  24.011   8.342
44225W        W86236   2.849   0.164   8.092
44226W        W86237  24.199   9.224  10.762
44227W        W86238  16.299  23.991   0.718
44228W        W86239  10.509   6.524   3.752
44229W        W86240  15.729   0.864  10.092
44230W        W86241   4.749  15.624   2.498
44231W        W86242  21.299  21.294   1.808
44232W        W86243  15.649  19.984  11.692
44233W        W86244  21.319  17.244   8.802
44234W        W86245  15.169  10.994   2.498
44235W        W86246  11.619  18.504   2.318
44236W        W86247  21.839  10.044   2.488
44237W        W86248  12.019  15.664   4.132
44238W        W86249   1.849   1.174   8.092
44239W        W86250  24.339   6.304   0.878
44240W        W86251   7.579   2.014  11.072
44241W        W86252  14.169   8.634   2.058
44242W        W86253  15.919  10.424   2.582
44243W        W86254  21.419   1.414   9.052
44244W        W86255  17.219  15.234   1.698
44245W        W86256   3.809  13.714   1.078
44246W        W86257   3.639  15.734   2.428
44247W        W86258  13.729   0.264   3.152
44248W        W86259  23.629   2.394  12.432
44249W        W86260  13.069  15.924   2.822
44250W        W86261   5.919  21.304   9.772
44251W        W86262  14.499  16.944  14.612
44252W        W86263  20.859  21.411   0.958
44253W        W86264  11.279  11.764   0.518
44254W        W86265  21.669  11.094   7.992
44255W        W86266   7.019   3.564   3.422
44256W        W86267  17.949  15.004   0.778
44257W        W86268  14.239  10.434  14.602
44258W        W86269  16.569   5.704  14.582
44259W        W86270  24.289  12.684   9.632
44260W        W86271  19.049   7.564  15.132
44261W        W86272   7.369   6.564   1.288
44262W        W86273   6.719   2.334   8.432
44263W        W86274  11.869   3.194   0.088
44264W        W86275  15.629  20.224   0.608
44265W        W86276   4.409  19.194   0.608
44266W        W86277  17.849  24.101   7.592
44267W        W86278  25.139   6.134   7.762
44268W        W86279   5.919  15.404  10.922
44269W        W86280  22.839   9.114   8.712
44270W        W86281   8.559  18.724   8.972
44271W        W86282   0.359   7.244   6.592
44272W        W86283   8.909   6.574   4.342
44273W        W86284   5.539   2.564   9.562
44274W        W86285  25.059  21.671  10.172
44275W        W86286   6.839  18.824   9.832
44276W        W86287  13.019  18.454  14.182
44277W        W86288  22.649  17.604   7.672
44278W        W86289   6.319  18.344  10.522
44279W        W86290   4.839  15.394   9.452
44280W        W86291  13.579   5.174   9.562
44281W        W86292  24.539  21.411   8.942
44282W        W86293  13.189  22.561  11.012
44283W        W86294  21.069   5.624  10.452
44284W        W86295  21.509  17.954  10.832
44285W        W86296  25.189  19.314  10.502
44286W        W86297  15.349   6.774   9.222
44287W        W86298  21.469  21.491   0.898
44288W        W86299   2.669   6.584   8.202
44289W        W86300  19.909  25.041   9.922
44290W        W86301  18.519   8.284   1.198
44291W        W86302  24.759  19.604   1.268
44292W        W86303  19.119  23.931   1.088
44293W        W86304  11.919  18.424   8.052
44294W        W86305  19.839   4.134   2.952
44295W        W86306  10.829  22.711   0.688
44296W        W86307   2.129   6.234   7.482
44297W        W86308   0.429   9.554   0.378
44298W        W86309  22.759  11.494   0.788
44299W        W86310  20.919  25.141  11.592
44300W        W86311  13.639  19.804   8.742
44301W        W86312   1.739  24.971   0.278
44302W        W86313   9.209   3.654  15.562
44303W        W86314  10.199   9.164  15.712
44304W        W86315  22.779  22.261  11.802
44305W        W86316  18.739  10.574   0.078
44306W        W86317   5.679   8.514   8.052
44307W        W86318  11.629  20.384   9.322
44308W        W86319   1.789  12.974   0.468
44309W        W86320  23.049  15.014   0.658
44310W        W86321  17.749   2.044   3.812
44311W        W86322  17.119  11.194   2.982
44312W        W86323  11.069  10.474   0.038
44313W        W86324  24.679   1.664  11.682
44314W        W86325   0.409  15.084   1.558
44315W        W86326  18.029   1.684  10.752
44316W        W86327   8.599   7.524   4.122
44317W        W86328   8.819   7.144   8.162
44318W        W86329   2.749  10.844  15.802
44319W        W86330   2.369   6.254  15.182
44320W        W86331  14.069   7.904   8.172
44321W        W86332  18.379   6.144   1.108
44322W        W86333  16.109  23.531   9.042
44323W        W86334   0.699   8.944  11.142
44324W        W86335  15.969  13.484   0.728
44325W        W86336  12.359  11.544  14.572
44326W        W86337   9.089  11.324   1.228
44327W        W86338  18.059  21.531  10.942
44328W        W86339  12.519  12.194  14.332
44329W        W86340   1.699   6.584   2.542
44330W        W86341   5.589   5.794   8.292
44331W        W86342   8.419   0.684   1.538
44332W        W86343  15.959  17.724  11.102
44333W        W86344  14.179   2.624   8.822
44334W        W86345   9.619  23.101   4.482
44335W        W86346   8.159   6.604  15.602
44336W        W86347   5.439   8.564   7.612
44337W        W86348  25.509  15.454   2.982
44338W        W86349  24.539  17.904   8.712
44339W        W86350  14.979  10.394   3.862
44340W        W86351  24.429   9.624   9.232
44341W        W86352  20.849  17.334   1.768
44342W        W86353   7.609  17.924  11.992
44343W        W86354  11.289  20.704   9.402
44344W        W86355   5.289  13.444   9.632
44345W        W86356  15.049  19.084   9.592
44346W        W86357   5.679  15.204   0.908
44347W        W86358   3.049  17.184  12.102
44348W        W86359  15.919  22.351   9.992
44349W        W86360  20.009  14.024  11.052
44350W        W86361   5.859   4.134   3.052
44351W        W86362   2.859  24.221  15.872
44352W        W86363  10.889   1.164   1.778
44353W        W86364   6.469  18.244  14.552
44354W        W86365  18.659   6.644   9.622
44355W        W86366  18.999   1.364  10.582
44356W        W86367  20.529  16.844   0.368
44357W        W86368   0.539  12.034  11.142
44358W        W86369  13.509  15.894   1.798
44359W        W86370  21.609   0.204   8.902
44360W        W86371  23.509  16.134   8.562
44361W        W86372  23.289  10.604   1.438
44362W        W86373  20.419  14.944   2.318
44363W        W86374   6.229  22.921   1.508
44364W        W86375   7.149  12.244   1.688
44365W        W86376   9.709  23.661   8.522
44366W        W86377  12.969  15.924  10.882
44367W        W86378  22.899   8.824   9.572
44368W        W86379   6.479   5.834   1.618
44369W        W86380   2.669  11.504  10.562
44370W        W86381   8.999  23.261   2.028
44371W        W86382  24.959  18.344   1.378
44372W        W86383  23.129  10.914   9.412
44373W        W86384  13.429   1.194  10.282
44374W        W86385  24.279  21.681   3.362
44375W        W86386  24.099   7.604   2.882
44376W        W86387   2.479   5.434   2.318
44377W        W86388   8.409  18.284   2.782
44378W        W86389   9.399   2.614   1.128
44379W        W86390  24.349  18.864   1.518
44380W        W86391  21.819   2.394   2.572
44381W        W86392   9.599   8.324  14.182
44382W        W86393  18.119  25.271   8.422
44383W        W86394  24.429  13.724  10.572
44384W        W86395  23.679   9.404   7.502
44385W        W86396   7.149  22.011  10.452
44386W        W86397  17.099  20.464   2.562
44387W        W86398   6.299   4.224  15.112
44388W        W86399  18.229   4.494  15.762
44389W        W86400  21.879  24.541  11.622
44390W        W86401  13.369  13.214  15.702
44391W        W86402   7.209  16.404   0.278
44392W        W86403  23.479  10.044   0.298
44393W        W86404   0.709   0.784  11.802
44394W        W86405   5.919   8.254  15.622
44395W        W86406   5.909  20.214   0.538
44396W        W86407   6.579  10.854   2.168
44397W        W86408  23.969   8.324   9.232
44398W        W86409   1.999  23.561  11.522
44399W        W86410  11.519  25.001  11.482
44400W        W86411   7.389   4.234   0.298
44401W        W86412   9.989  10.144   3.532
44402W        W86413  12.069  13.554   3.762
44403W        W86414   1.089   6.014   0.978
44404W        W86415   9.579  17.944   1.788
44405W        W86416   0.449   4.664  10.762
44406W        W86417  10.779   5.954   1.878
44407W        W86418   8.489  13.954   2.468
44408W        W86419  18.729  19.924   0.288
44409W        W86420   2.469   4.434   8.162
44410W        W86421  23.629  20.404   3.132
44411W        W86422  20.389  22.041  11.822
44412W        W86423  22.209  10.464   9.022
44413W        W86424  25.139  11.514   9.102
44414W        W86425  19.589  19.934  11.872
44415W        W86426  20.589   9.184   1.218
44416W        W86427  13.859   1.254   2.772
44417W        W86428  17.629  23.231   2.348
44418W        W86429  20.079  24.111  11.932
44419W        W86430  19.419  20.704  10.212
44420W        W86431  23.549  19.084  10.782
44421W        W86432  18.869  23.541   1.338
44422W        W86433   9.709   0.424   8.372
44423W        W86434   1.529   0.864  11.742
44424W        W86435  11.719  18.564   9.862
44425W        W86436  18.119   0.374  12.192
44426W        W86437  16.409   7.994  15.782
44427W        W86438   7.069  24.791   0.288
44428W        W86439  15.049   9.774   0.998
44429W        W86440  14.589   5.614  10.472
44430W        W86441  23.909   3.024   2.128
44431W        W86442  14.789   1.294   0.438
44432W        W86443   7.319  11.934  14.502
44433W        W86444  12.729   1.184   4.102
44434W        W86445   2.149   5.364  15.352
44435W        W86446   0.519   2.264   1.268
44436W        W86447   5.149  13.054  15.302
44437W        W86448  12.849  14.124   0.138
44438W        W86449   5.499  14.594   8.942
44439W        W86450   7.659  19.044   2.188
44440W        W86451   8.719   0.874   2.832
44441W        W86452  11.679  16.534   9.992
44442W        W86453  10.769   2.434   9.942
44443W        W86454   1.489  19.984  11.282
44444W        W86455   8.039   4.424  15.372
44445W        W86456  22.909  17.064   4.192
44446W        W86457  11.319  23.431  10.922
44447W        W86458   1.309   9.244   1.348
44448W        W86459  23.189   2.724   0.368
44449W        W86460   5.579   9.564   2.428
44450W        W86461  21.489  11.354   1.628
44451W        W86462   5.699  15.554   1.878
44452W        W86463  15.909  18.524   3.272
44453W        W86464   3.129   9.154  10.942
44454W        W86465  13.459  15.024   3.062
44455W        W86466   5.509   9.024   7.842
44456W        W86467   4.129   6.534   1.658
44457W        W86468  15.649   4.784   2.942
44458W        W86469  21.169  16.454   0.758
44459W        W86470  20.379   1.024   8.642
44460W        W86471   2.519   8.024  15.832
44461W        W86472  18.659  24.091   4.252
44462W        W86473   6.559  13.074  10.472
44463W        W86474  16.119  18.104   2.318
44464W        W86475   4.119  20.994  11.472
44465W        W86476   2.779   5.494   6.752
44466W        W86477  18.439   3.104   9.812
44467W        W86478   0.929  15.314   8.982
44468W        W86479  10.999  12.224   5.632
44469W        W86480  15.039  21.771   0.738
44470W        W86481   5.459  11.724   1.338
44471W        W86482   8.799  16.384   1.228
44472W        W86483   2.629  25.331  10.012
44473W        W86484   3.199   0.474  10.792
44474W        W86485  20.579  20.914   2.772
44475W        W86486   1.609   4.054   0.068
44476W        W86487  19.759  20.504  12.302
44477W        W86488   8.729  23.911   3.872
44478W        W86489  21.239  20.024  10.412
44479W        W86490  22.939  10.704  10.032
44480W        W86491  20.879  25.231   3.182
44481W        W86492   0.699   1.794  15.712
44482W        W86493  11.569  16.984   2.882
44483W        W86494  15.969   0.544  10.992
44484W        W86495   1.279  15.384  15.432
44485W        W86496  13.649  10.484   0.908
44486W        W86497  21.059  23.921   3.182
44487W        W86498   2.909   8.664  15.092
44488W        W86499  20.099  18.154  15.532
44489W        W86500  19.609  10.994   9.362
44490W        W86501  19.259  18.404  11.462
44491W        W86502  22.989   2.734   9.462
44492W        W86503  19.689  23.841   9.232
44493W        W86504  15.009  23.241   9.092
44494W        W86505  18.779  21.014  11.432
44495W        W86506  19.309   1.374   8.042
44496W        W86507   8.969  15.174  10.042
44497W        W86508  13.789  14.414   3.562
44498W        W86509  16.319   8.784  14.822
44499W        W86510  17.199  14.704   2.198
44500W        W86511  24.689   0.664   2.478
44501W        W86512  12.169   4.184  15.662
44502W        W86513  14.709   6.944   0.558
44503W        W86514  12.239  23.031   8.872
44504W        W86515   4.859  10.504   0.508
44505W        W86516  22.309   2.054   8.742
44506W        W86517   9.429   5.074  10.572
44507W        W86518  12.619   8.004   0.528
44508W        W86519   1.219  24.161   7.632
44509W        W86520   8.219   5.914   3.382
44510W        W86521  12.099  10.514  15.612
44511W        W86522  16.179  12.944   9.382
44512W        W86523  23.359  13.184   2.772
44513W        W86524  17.949  24.261   0.348
44514W        W86525  20.109  19.054   9.682
44515W        W86526   0.509  11.154  15.292
44516W        W86527   5.689   2.974  10.292
44517W        W86528  15.809  10.244  14.722
44518W        W86529  23.169  18.214   2.752
44519W        W86530  17.129  15.304   2.168
44520W        W86531  25.459   9.014   2.178
44521W        W86532   6.719  19.184  10.702
44522W        W86533   9.279   8.974   3.552
44523W        W86534   1.249  12.294   0.458
44524W        W86535   2.299  18.994   7.222
44525W        W86536  25.489   8.304   1.948
44526W        W86537  24.739   1.924   9.872
44527W        W86538  16.869  13.134   1.878
44528W        W86539  10.499   4.814   9.852
44529W        W86540   1.119  10.344   0.818
44530W        W86541  11.309  20.174   5.342
44531W        W86542   6.169  21.154   1.218
44532W        W86543   2.159  20.654   3.372
44533W        W86544   8.299   0.864   3.202
44534W        W86545  22.429   4.084  11.472
44535W        W86546  15.619  20.684   1.638
44536W        W86547   9.299  18.894   2.682
44537W        W86548   5.729   9.164   2.118
44538W        W86549  17.259   4.894  10.962
44539W        W86550   5.349  24.051   2.502
44540W        W86551   4.559   1.774   9.142
44541W        W86552  24.189   8.964   1.488
44542W        W86553  24.949  13.394   8.882
44543W        W86554  16.189   6.874   2.358
44544W        W86555  20.869  14.724   2.188
44545W        W86556  20.219   6.904   7.232
44546W        W86557  20.299  22.281  10.142
44547W        W86558  22.499  20.544   2.962
44548W        W86559   5.259  24.321   3.022
44549W        W86560  17.459   1.454   0.878
44550W        W86561  16.089  25.341   2.852
44551W        W86562  19.109  16.544  10.952
44552W        W86563  21.359  25.441   8.622
44553W        W86564  18.989  18.284   0.788
44554W        W86565  15.249   1.644   0.388
44555W        W86566   6.009   1.834  11.122
44556W        W86567  25.009  17.684  11.492
44557W        W86568  22.239  13.844   7.202
44558W        W86569  17.189  23.981   2.418
44559W        W86570   4.039  13.394   3.172
44560W        W86571  12.839   5.674   8.572
44561W        W86572   5.809  18.974   1.278
44562W        W86573   8.969  24.881   0.438
44563W        W86574   8.839  16.434   9.342
44564W        W86575  15.399  13.224   0.228
44565W        W86576   1.799   2.574   2.542
44566W        W86577   3.859  15.834   8.352
44567W        W86578   3.939  16.194   4.222
44568W        W86579  12.099  21.961   9.492
44569W        W86580  11.919  14.694  10.562
44570W        W86581  10.259   4.654   2.008
44571W        W86582  24.899   1.604   9.492
44572W        W86583   7.209  22.611  15.232
44573W        W86584  20.159  16.294   2.712
44574W        W86585   6.099   6.114   8.872
44575W        W86586  11.969  24.211   1.818
44576W        W86587  11.819   2.664   3.662
44577W        W86588  21.409  15.114   9.702
44578W        W86589  24.679  10.544   8.982
44579W        W86590  14.829  19.124   1.868
44580W        W86591  22.399   5.984   7.072
44581W        W86592  12.449   1.344   3.382
44582W        W86593   2.029   2.004   2.268
44583W        W86594   6.829  24.811  15.632
44584W        W86595  19.459  12.474  10.172
44585W        W86596  18.899  16.314   1.708
44586W        W86597  21.409  19.364   8.642
44587W        W86598  11.549  15.844  10.392
44588W        W86599  21.079   1.354  10.772
44589W        W86600  10.849   6.274  15.492
44590W        W86601  21.529   0.204   8.312
44591W        W86602  12.669   0.014  15.392
44592W        W86603  22.469  17.444   2.882
44593W        W86604   2.849  24.331   0.948
44594W        W86605  20.509  15.874   3.432
44595W        W86606  14.779   5.094   9.082
44596W        W86607  25.189  22.151  10.072
44597W        W86608  20.419   9.384   2.168
44598W        W86609  25.509   2.594  10.972
44599W        W86610  25.029   2.904  12.102
44600W        W86611  16.789   0.524   9.042
44601W        W86612  20.149   2.984  15.652
44602W        W86613   3.669   6.394   1.908
44603W        W86614   6.459  12.934   2.388
44604W        W86615  21.839  24.891  10.762
44605W        W86616   4.799   4.954   8.872
44606W        W86617   9.329   3.654   0.188
44607W        W86618  17.639  10.274  14.442
44608W        W86619  22.089  18.934   2.098
44609W        W86620   0.319  18.914  15.202
44610W        W86621  21.319  11.954   8.332
44611W        W86622   3.339   3.704   3.262
44612W        W86623  11.769  20.724  10.782
44613W        W86624   8.779  24.271   3.142
44614W        W86625  10.969   8.424   8.602
44615W        W86626  11.099  17.154   2.662
44616W        W86627  19.029   9.174   9.142
44617W        W86628  23.279   5.864   3.002
44618W        W86629  22.829  10.834  10.642
44619W        W86630  13.539  23.891   9.492
44620W        W86631  14.009   9.114  15.452
44621W        W86632   4.559   8.994   1.068
44622W        W86633  15.949   7.794   3.142
44623W        W86634  12.439  22.231   2.902
44624W        W86635  10.749   1.624   2.008
44625W        W86636  15.199  11.234  15.722
44626W        W86637   2.569  17.444   9.892
44627W        W86638  10.689  15.104   2.088
44628W        W86639  17.749   0.854   4.342
44629W        W86640  13.679   9.194   3.002
44630W        W86641   5.369  25.521   9.622
44631W        W86642  12.119   6.764   4.002
44632W        W86643  19.049  20.134  11.102
44633W        W86644   1.979   9.634   6.762
44634W        W86645  14.329  18.884  15.352
44635W        W86646   1.539  24.041   0.858
44636W        W86647   2.709  21.054   0.488
44637W        W86648  25.389  14.184   8.222
44638W        W86649  21.139  24.411   2.468
44639W        W86650  14.969   2.634  10.882
44640W        W86651  21.639   9.684   9.882
44641W        W86652  22.109  16.314   0.308
44642W        W86653  23.159   1.314   2.542
44643W        W86654   9.999   7.994   9.802
44644W        W86655  17.679  23.031   1.198
44645W        W86656   8.959   3.454   9.162
44646W        W86657   3.469  21.721   2.732
44647W        W86658  10.089  21.054   0.538
44648W        W86659   3.739  10.564   0.308
44649W        W86660   0.799  12.454  11.302
44650W        W86661   8.079   5.974   0.928
44651W        W86662   5.299   1.824  11.482
44652W        W86663  19.689   1.444  15.582
44653W        W86664   8.639  22.551   8.832
44654W        W86665  23.999   2.624   1.528
44655W        W86666  11.739   1.904  15.232
44656W        W86667   1.719  17.074  11.122
44657W        W86668  19.409  23.571   8.342
44658W        W86669  12.399  14.284   3.892
44659W        W86670   2.989   3.024  10.882
44660W        W86671  19.179  14.644   1.178
44661W        W86672   2.679  25.421   7.182
44662W        W86673  23.019  19.474   0.098
44663W        W86674   8.519  12.194   4.442
44664W        W86675  19.379  24.541  10.152
44665W        W86676  14.459  19.484   0.098
44666W        W86677  18.679  13.704   8.412
44667W        W86678   5.469  14.284   9.352
44668W        W86679   4.789  23.371   0.608
44669W        W86680  16.319  18.624  11.382
44670W        W86681  16.859  20.344  10.882
44671W        W86682   7.929  13.534   0.678
44672W        W86683   7.749   4.064  15.012
44673W        W86684  21.179   0.834  12.112
44674W        W86685  20.099  14.404   2.478
44675W        W86686   1.809   9.974  10.362
44676W        W86687   0.289  12.894  11.372
44677W        W86688  23.389   3.494   1.478
44678W        W86689  13.259  25.321   1.148
44679W        W86690  21.889  15.604   7.172
44680W        W86691  16.599   3.884   8.882
44681W        W86692  11.659  18.394   3.592
44682W        W86693  14.719  15.294   1.878
44683W        W86694   3.489  21.791  12.302
44684W        W86695  21.029   8.964  15.762
44685W        W86696  15.389   0.694   9.742
44686W        W86697  14.999  18.534   0.188
44687W        W86698   4.129   3.084   2.982
44688W        W86699   1.169  11.174   0.448
44689W        W86700   6.309   0.224   2.752
44690W        W86701   3.169  12.634   8.022
44691W        W86702  24.259   2.934   2.522
44692W        W86703  21.859  19.614  11.102
44693W        W86704  21.749  24.521  11.152
44694W        W86705   0.629  21.731   0.828
44695W        W86706   6.509  10.474   7.862
44696W        W86707  17.849  20.764   2.068
44697W        W86708   7.869  22.101   2.752
44698W        W86709  15.439   2.434   8.932
44699W        W86710  20.959  11.034  15.502
44700W        W86711   6.079   4.234   8.952
44701W        W86712  21.249  15.464  10.332
44702W        W86713   4.999  13.864   0.778
44703W        W86714   3.949  14.194   8.902
44704W        W86715  20.219   9.474   7.682
44705W        W86716  22.369  24.881   1.738
44706W        W86717  10.949  19.544   3.012
44707W        W86718   6.549   4.754   4.202
44708W        W86719  12.119   0.964   0.698
44709W        W86720   3.669  24.481   1.898
44710W        W86721  14.889  10.094   1.878
44711W        W86722  18.919   1.864  11.002
44712W        W86723  22.019  10.304  10.442
44713W        W86724   1.689   2.264  15.612
44714W        W86725  20.619  14.084   7.942
44715W        W86726  23.269  24.611   3.392
44716W        W86727   4.049   5.504   7.842
44717W        W86728   8.069  20.994   4.802
44718W        W86729   3.789   3.994  10.552
44719W        W86730   5.319   3.514   2.268
44720W        W86731  25.539  22.431  15.832
44721W        W86732   8.799  13.914  10.752
44722W        W86733  10.759  17.324   9.182
44723W        W86734  25.549  20.714  11.082
44724W        W86735  22.299   7.724  11.852
44725W        W86736   7.829  14.594   0.448
44726W        W86737  11.829   1.724   1.828
44727W        W86738   1.779  15.914   9.652
44728W        W86739   8.769  14.354   2.128
44729W        W86740   6.999   9.584   2.228
44730W        W86741  12.549   3.944   4.162
44731W        W86742  24.379  17.494  10.772
44732W        W86743  23.259   5.844   8.762
44733W        W86744   6.549   4.624   9.282
44734W        W86745   4.659  16.334   8.212
44735W        W86746  13.329  11.344   4.052
44736W        W86747  10.699  24.101   8.922
44737W        W86748   7.309  16.474   1.198
44738W        W86749   2.639  20.124  10.192
44739W        W86750  25.589  15.704   7.782
44740W        W86751  14.549  12.624   9.672
44741W        W86752   5.449  12.344   1.868
44742W        W86753  15.679  23.711   2.398
44743W        W86754   9.109  13.074   8.502
44744W        W86755  11.329  20.894   4.102
44745W        W86756  14.919  12.204   1.488
44746W        W86757  24.059   6.604   2.562
44747W        W86758  10.459   9.694   8.172
44748W        W86759  10.709  18.904   4.952
44749W        W86760  18.269   4.574   2.962
44750W        W86761   0.849  16.964   9.472
44751W        W86762   5.009  19.744   7.882
44752W        W86763   9.389  18.804  11.162
44753W        W86764  12.569   5.844   1.818
44754W        W86765  14.529  23.421  11.692
44755W        W86766  11.379  18.374   9.422
44756W        W86767  19.469  13.284   9.962
44757W        W86768   4.689  24.291  10.012
44758W        W86769  15.729   7.714   0.018
44759W        W86770  22.429   5.524   0.858
44760W        W86771  14.579   5.694   2.582
44761W        W86772  12.469  17.184   2.812
44762W        W86773  20.779  21.731  10.432
44763W        W86774   7.509   2.684   0.048
44764W        W86775  21.699  10.994   2.018
44765W        W86776  20.599  16.024   0.298
44766W        W86777  15.629  13.854   0.168
44767W        W86778  19.029  19.114  10.962
44768W        W86779  16.829  16.194   9.232
44769W        W86780   7.339   2.094  15.642
44770W        W86781  15.429  23.291  10.092
44771W        W86782  23.159   0.004   4.132
44772W        W86783  21.319  18.834  11.302
44773W        W86784  16.169   1.684   8.912
44774W        W86785   9.679  10.554   3.922
44775W        W86786  20.639   8.204  10.862
44776W        W86787  13.059  13.054  15.252
44777W        W86788  17.679  20.464   9.652
44778W        W86789  10.119  24.921   8.902
44779W        W86790   9.339  11.784  15.532
44780W        W86791  14.489  24.491  11.962
44781W        W86792   0.239   1.374   9.392
44782W        W86793  13.469  19.244   7.782
44783W        W86794  11.579  20.364   4.942
44784W        W86795  24.639  23.581   0.718
44785W        W86796  21.429   4.934   9.972
44786W        W86797   4.829  17.104   7.772
44787W        W86798   6.879   0.684   3.132
44788W        W86799  11.519  12.994  14.842
44789W        W86800  19.859  22.091   8.662
44790W        W86801   8.549  24.621   1.868
44791W        W86802  23.579  23.741  10.932
44792W        W86803   3.769  21.651   2.398
44793W        W86804  10.469   1.584  10.582
44794W        W86805  21.139  25.001  11.972
44795W        W86806   3.359   0.034   7.182
44796W        W86807  17.169  18.654   1.048
44797W        W86808  20.369  11.384   2.752
44798W        W86809  24.169  20.434   3.132
44799W        W86810   0.329  24.311   8.432
44800W        W86811  24.419  25.341   2.542
44801W        W86812  22.089   3.474   8.292
44802W        W86813   3.009  16.054   9.362
44803W        W86814   2.079  15.554   9.852
44804W        W86815   2.689  18.674   3.152
44805W        W86816   0.309  16.514   1.308
44806W        W86817  24.509  12.984   1.288
44807W        W86818  17.919   8.344  14.922
44808W        W86819  18.419   7.164   1.188
44809W        W86820  25.309  15.274   8.442
44810W        W86821   8.809   5.074   0.328
44811W        W86822  25.559  15.494   2.068
44812W        W86823  14.559   9.274  15.152
44813W        W86824  11.719  16.304   0.618
44814W        W86825   7.509  20.394   7.912
44815W        W86826  24.989   7.554   8.282
44816W        W86827   4.689  13.744   8.992
44817W        W86828   5.199  10.464   3.752
44818W        W86829   4.139  16.454   0.988
44819W        W86830   6.389   5.124  10.602
44820W        W86831   9.729   1.264   1.188
44821W        W86832   6.249  15.884   7.712
44822W        W86833  23.889  16.904  10.882
44823W        W86834  17.089   2.104   1.998
44824W        W86835   1.669   1.884  14.562
44825W        W86836  12.779   2.744   9.842
44826W        W86837  10.739  20.164   2.348
44827W        W86838  21.919  18.584   1.378
44828W        W86839   3.499  16.014   8.032
44829W        W86840   8.009  22.021  15.862
44830W        W86841  10.209   0.244   2.118
44831W        W86842   0.129  24.341   3.592
44832W        W86843  19.859   8.624  10.782
44833W        W86844   3.859  12.034  10.722
44834W        W86845  16.329  22.311   1.108
44835W        W86846  24.569  23.201   8.282
44836W        W86847   3.799  10.364  11.522
44837W        W86848   7.569  12.674   1.538
44838W        W86849   6.489  15.324   0.598
44839W        W86850   9.369  25.131   1.208
44840W        W86851   9.509   7.364   2.038
44841W        W86852  10.849  15.014   1.268
44842W        W86853  23.329   1.754   9.152
44843W        W86854  23.829  23.541  10.002
44844W        W86855   1.439   5.304   3.062
44845W        W86856  15.769  13.444   1.788
44846W        W86857  24.189  24.771   8.182
44847W        W86858  24.689  11.854  10.872
44848W        W86859  16.869   0.864   2.722
44849W        W86860  24.529  12.614   1.688
44850W        W86861  12.349   9.404   0.518
44851W        W86862   5.709   8.384  10.092
44852W        W86863  25.209  13.454  11.142
44853W        W86864  15.089  18.204  15.292
44854W        W86865   5.429  17.554   2.642
44855W        W86866  17.639  14.794   0.348
44856W        W86867   8.929   6.154  15.752
44857W        W86868  14.649   5.284   4.622
44858W        W86869  11.709  16.264   0.058
44859W        W86870  19.639  12.444   3.682
44860W        W86871  12.289  25.091   9.752
44861W        W86872  19.929   1.554  12.472
44862W        W86873  20.829  25.041   2.732
44863W        W86874   2.279  10.644   8.642
44864W        W86875  22.599  20.584  11.592
44865W        W86876  19.549  24.831   7.402
44866W        W86877   5.879   0.164   1.838
44867W        W86878   0.619  20.554   1.158
44868W        W86879   9.459  21.214   1.708
44869W        W86880  22.309  17.584   0.608
44870W        W86881  24.909  12.204  10.482
44871W        W86882  14.149  10.234   0.858
44872W        W86883  21.189   5.904  15.762
44873W        W86884  13.149  23.211   9.122
44874W        W86885  10.989  13.994  10.532
44875W        W86886   6.159   7.114   8.312
44876W        W86887  13.329   6.454   2.128
44877W        W86888  22.559  13.254  11.332
44878W        W86889  23.419   3.444   2.368
44879W        W86890  20.639  24.231   1.018
44880W        W86891  18.239   0.204   7.412
44881W        W86892  13.439  22.911   9.602
44882W        W86893  12.879   0.084   0.288
44883W        W86894  16.919  23.511   3.122
44884W        W86895   6.859  13.224   9.552
44885W        W86896   7.409  14.704  15.852
44886W        W86897  17.659  13.994  10.812
44887W        W86898  15.439   5.264   1.878
44888W        W86899  18.289   3.474   2.218
44889W        W86900  23.519   8.894  15.712
44890W        W86901  12.449  22.531  10.412
44891W        W86902   3.759  12.824   2.458
44892W        W86903  18.809  21.911   0.328
44893W        W86904  10.549  10.124  14.752
44894W        W86905  14.759  18.984  14.472
44895W        W86906  10.739   0.984  15.122
44896W        W86907  23.579  16.134  10.732
44897W        W86908   8.709  25.261   8.702
44898W        W86909  16.989   8.284   7.942
44899W        W86910   6.119  14.354  11.102
44900W        W86911  14.969   9.704   1.478
44901W        W86912  17.919   5.734   2.852
44902W        W86913  10.409  17.934   1.118
44903W        W86914  10.369  21.571   8.432
44904W        W86915  24.319  13.334   8.762
44905W        W86916   9.249  16.234  10.172
44906W        W86917   6.089  12.524   1.148
44907W        W86918  17.759  17.154   9.872
44908W        W86919   9.039  20.394   1.758
44909W        W86920  15.559  10.004   2.602
44910W        W86921  12.789  14.604   1.268
44911W        W86922   0.051  17.834  11.992
44912W        W86923  14.629  17.534   9.982
44913W        W86924  25.169  23.631   9.122
44914W        W86925   6.879  19.034  11.132
44915W        W86926  11.399   2.854  11.252
44916W        W86927   3.559   2.114   9.452
44917W        W86928  20.709   4.774  15.732
44918W        W86929  19.749  23.551  10.302
44919W        W86930  16.649  22.501  11.572
44920W        W86931   7.769  12.904  15.672
44921W        W86932  12.589   7.844   4.112
44922W        W86933  20.789  12.134   9.022
44923W        W86934   3.469  16.024   0.598
44924W        W86935  15.699  16.884   2.268
44925W        W86936  10.309   3.004  10.282
44926W        W86937  15.339  20.564   8.202
44927W        W86938   9.129  24.561   9.502
44928W        W86939  16.769  15.044  11.472
44929W        W86940  18.469  23.761   3.162
44930W        W86941   7.969  14.614   8.792
44931W        W86942   5.149  18.454   8.322
44932W        W86943  21.099  23.291  12.232
44933W        W86944   8.419   3.124   4.352
44934W        W86945  12.889   9.164   1.458
44935W        W86946   0.969  12.924  11.182
44936W        W86947  21.439   0.184  10.152
44937W        W86948   2.599   4.214  15.762
44938W        W86949  24.059  25.081   2.278
44939W        W86950  16.929  18.764   7.982
44940W        W86951  20.089   5.004   9.092
44941W        W86952   4.259  16.444   0.518
44942W        W86953   9.909  19.374   1.968
44943W        W86954   1.159  22.781  10.362
44944W        W86955   3.669  25.181   9.822
44945W        W86956  18.099   3.264  10.192
44946W        W86957  17.239   9.304  10.582
44947W        W86958  15.349  18.604   1.838
44948W        W86959  25.079   9.734   9.402
44949W        W86960   6.229  15.414   0.138
44950W        W86961   3.599  13.044   7.942
44951W        W86962  11.159   3.934  14.162
44952W        W86963   7.759  22.851   1.478
44953W        W86964  11.149   8.994  10.082
44954W        W86965   8.389   7.714  14.742
44955W        W86966   8.689  25.471   2.498
44956W        W86967  18.779  25.251  12.342
44957W        W86968   9.819  18.784   2.912
44958W        W86969  10.219   9.714   3.372
44959W        W86970  12.539  11.304   9.372
44960W        W86971  20.479  21.861   2.562
44961W        W86972  24.729   8.874  11.052
44962W        W86973  20.109   1.054   1.218
44963W        W86974   2.039  15.184   3.182
44964W        W86975  17.079  18.114   2.562
44965W        W86976  11.249  25.011   9.112
44966W        W86977  15.359   1.394   3.402
44967W        W86978  21.359  13.994   2.662
44968W        W86979  25.539   9.054   1.258
44969W        W86980  22.299  10.314   7.732
44970W        W86981  14.839   8.554   3.922
44971W        W86982  18.159  12.824   1.498
44972W        W86983  22.059   9.034   2.772
44973W        W86984  23.999  21.591   9.812
44974W        W86985   6.059   5.604   1.898
44975W        W86986  25.439  17.594   8.872
44976W        W86987  11.989  19.094  15.552
44977W        W86988   9.029   2.644  11.052
44978W        W86989   2.669  11.004   1.148
44979W        W86990   4.799  21.294   3.642
44980W        W86991  12.449   0.684   8.392
44981W        W86992  18.379   6.544   7.892
44982W        W86993   2.779  12.414   0.308
44983W        W86994  14.499  18.284   3.752
44984W        W86995  15.799   6.544   3.652
44985W        W86996  19.499  21.881  10.442
44986W        W86997  14.179  19.754   8.842
44987W        W86998   4.109   3.714   8.792
44988W        W86999   4.029  13.474   2.358
44989W        W87000  24.239  13.384  10.112
44990W        W87001  16.179   9.604   9.042
44991W        W87002  19.009  23.281   3.862
44992W        W87003  23.329  20.404  10.132
44993W        W87004  16.229  11.684   1.908
44994W        W87005   4.959  19.164   9.982
44995W        W87006   6.639   2.544   2.552
44996W        W87007  21.539  19.284  10.822
44997W        W87008   5.029   3.264   9.152
44998W        W87009  13.799  10.644  14.722
44999W        W87010  25.349   0.074   3.852
45000W        W87011   9.819  14.234   2.912
45001W        W87012  21.659  17.214   3.502
45002W        W87013   2.409   4.594   2.158
45003W        W87014  22.159  17.374   3.432
45004W        W87015  12.169  14.994   0.268
45005W        W87016  20.389  20.344   9.972
45006W        W87017  16.479  11.794  15.242
45007W        W87018   4.759  24.091   3.252
45008W        W87019   4.789  18.664   3.292
45009W        W87020  24.869   2.614   0.948
45010W        W87021  12.409  17.024   4.452
45011W        W87022  12.729  16.244   2.572
45012W        W87023  18.729  23.891   7.822
45013W        W87024  15.989   9.214   9.332
45014W        W87025   4.729  19.124  10.452
45015W        W87026   2.479  12.344   0.768
45016W        W87027   2.359  13.724  15.662
45017W        W87028  24.389  23.671   8.612
45018W        W87029   2.859  17.354   0.888
45019W        W87030   9.449  20.764   4.482
45020W        W87031   7.809   4.864   4.392
45021W        W87032  13.249   0.124   2.488
45022W        W87033  22.869  10.224   7.572
45023W        W87034   9.819   0.404   1.748
45024W        W87035  15.669  17.924  14.732
45025W        W87036   4.129  21.074   1.818
45026W        W87037  16.079   4.344   3.852
45027W        W87038  18.449   8.014  15.602
45028W        W87039  12.469   3.634  13.912
45029W        W87040  21.829  22.271   7.902
45030W        W87041   1.429  22.861  11.122
45031W        W87042  14.789  16.514   4.932
45032W        W87043  13.349  16.534   3.962
45033W        W87044  17.779  14.844   9.052
45034W        W87045   5.219   3.554   3.302
45035W        W87046   9.229   6.034   2.328
45036W        W87047   4.569  21.561   8.882
45037W        W87048  19.019   4.904  10.962
45038W        W87049  16.109  17.914  14.992
45039W        W87050  20.259  11.284   1.428
45040W        W87051  17.309  23.341   1.068
45041W        W87052  21.829  18.934  15.452
45042W        W87053  13.569  19.364   9.372
45043W        W87054  18.029   4.934   3.172
45044W        W87055   5.899   0.094   2.982
45045W        W87056  18.589   3.224  10.332
45046W        W87057   2.909   9.724   0.158
45047W        W87058  21.499  18.264   1.718
45048W        W87059  14.789   9.014   0.728
45049W        W87060  14.129   4.204   1.578
45050W        W87061  12.969   1.484   3.352
45051W        W87062   9.799  19.404  10.632
45052W        W87063  24.219  16.444   9.822
45053W        W87064  13.559  10.194   2.892
45054W        W87065   1.189  12.514   9.282
45055W        W87066  15.769   2.254   3.902
45056W        W87067  19.949  20.864   7.822
45057W        W87068   9.919  16.894  15.362
45058W        W87069   6.209   2.234  10.892
45059W        W87070  12.269  13.964  14.912
45060W        W87071   9.039  10.834  14.902
45061W        W87072  15.989  23.781  11.482
45062W        W87073  20.039   3.984   8.642
45063W        W87074  13.029  18.944   0.178
45064W        W87075  23.879  16.564   1.748
45065W        W87076   0.979  17.084   2.038
45066W        W87077   6.779  12.954   0.438
45067W        W87078   0.399  20.094   8.522
45068W        W87079   1.889  23.191  15.282
45069W        W87080   0.399   5.434   1.508
45070W        W87081  13.699  18.314   4.062
45071W        W87082  19.089  11.764  10.562
45072W        W87083  17.119  14.164   0.858
45073W        W87084   9.509   4.624  10.282
45074W        W87085   2.329   3.814   9.692
45075W        W87086   8.919   5.714   8.672
45076W        W87087  24.859  14.394  11.372
45077W        W87088  15.949  10.484  14.252
45078W        W87089  20.349   8.254   9.892
45079W        W87090   5.439  12.604   2.498
45080W        W87091  16.959   7.734  10.212
45081W        W87092  13.359   5.764  10.602
45082W        W87093   5.289  11.774   1.948
45083W        W87094  13.369  16.234   0.928
45084W        W87095   6.149   4.564   0.788
45085W        W87096   1.619  25.231   8.222
45086W        W87097  16.369  10.944   9.132
45087W        W87098  18.779  12.124   3.772
45088W        W87099  10.289  20.094   0.458
45089W        W87100   9.369   8.214   1.378
45090W        W87101  12.769   9.984   3.192
45091W        W87102  22.279   9.124   2.328
45092W        W87103   5.429   0.714   7.912
45093W        W87104  16.619  18.794   3.812
45094W        W87105   1.379  24.531   1.648
45095W        W87106   0.549   2.184   3.502
45096W        W87107   6.989   6.804   1.448
45097W        W87108   6.999  13.694   9.812
45098W        W87109  22.209  12.084   8.862
45099W        W87110   4.409  11.824   8.502
45100W        W87111  16.399   9.154  10.662
45101W        W87112   6.139  17.464   8.852
45102W        W87113   6.959  24.661   8.862
45103W        W87114   6.699  16.134   1.118
45104W        W87115  18.849  24.031   8.842
45105W        W87116  22.929  23.241   1.368
45106W        W87117   9.199  13.074   0.888
45107W        W87118   9.259  23.361  15.582
45108W        W87119  16.719  14.414   9.592
45109W        W87120  21.579  17.624  12.742
45110W        W87121   2.279  21.004   9.842
45111W        W87122   3.789   6.364   8.542
45112W        W87123  16.259   8.204  10.352
45113W        W87124  21.949  16.884   1.148
45114W        W87125  20.229   2.654   0.968
45115W        W87126   2.559  24.201   9.172
45116W        W87127   2.749  14.224  11.052
45117W        W87128   1.339  11.094   0.008
45118W        W87129   5.809  17.514   9.212
45119W        W87130  14.259   8.034  15.742
45120W        W87131  15.489   3.644  10.402
45121W        W87132   6.989  16.364   3.202
45122W        W87133  15.789   3.184   1.018
45123W        W87134  12.879   7.244   9.642
45124W        W87135   6.939  13.384  14.402
45125W        W87136  22.529   9.494   8.722
45126W        W87137  10.229  14.544   4.372
45127W        W87138  16.769  25.591  10.812
45128W        W87139   2.599  22.851  10.772
45129W        W87140  22.369  17.574   1.638
45130W        W87141   4.699  18.784   3.762
45131W        W87142  18.439  16.224   0.428
45132W        W87143   5.859  19.104  10.142
45133W        W87144   6.309  15.784  10.542
45134W        W87145   7.299   7.064   3.222
45135W        W87146   0.539  10.724   0.058
45136W        W87147   6.869   1.514  10.822
45137W        W87148  13.669   3.584   8.912
45138W        W87149  15.179  18.094   2.008
45139W        W87150   2.409  17.064   9.552
45140W        W87151  20.849   0.684   7.852
45141W        W87152  17.589   6.604   1.198
45142W        W87153  23.109  13.764   1.468
45143W        W87154  15.389   3.594   1.148
45144W        W87155   6.729   5.484   8.912
45145W        W87156  11.819   7.974  15.402
45146W        W87157  14.659   9.674   0.028
45147W        W87158   7.429   4.264   3.202
45148W        W87159   4.109   4.484   9.932
45149W        W87160  22.019  12.104  10.622
45150W        W87161  11.739  10.314  14.682
45151W        W87162  17.289   7.534   9.572
45152W        W87163   5.129   3.914   9.712
45153W        W87164   7.239   7.274  11.162
45154W        W87165  12.439  12.304   4.542
45155W        W87166  19.589  14.354   3.222
45156W        W87167  22.829   9.084   1.778
45157W        W87168  14.449  19.414   9.512
45158W        W87169  17.779  20.264   0.508
45159W        W87170  16.679  23.611   8.262
45160W        W87171   4.549   1.844  10.852
45161W        W87172  20.499  14.104  10.032
45162W        W87173  24.509  18.324   1.588
45163W        W87174  14.669   5.184   2.542
45164W        W87175   5.389  22.931   1.238
45165W        W87176  14.859   6.994   0.048
45166W        W87177   5.439   4.314   2.278
45167W        W87178  24.519  12.784   8.022
45168W        W87179  11.139   6.774   2.922
45169W        W87180  24.429  14.604   9.132
45170W        W87181   1.189   9.974   2.782
45171W        W87182  11.749   1.224   2.018
45172W        W87183  11.889  21.481  10.412
45173W        W87184  24.939   7.174   1.888
45174W        W87185  17.089   4.144   1.618
45175W        W87186  17.519  18.334   1.168
45176W        W87187  14.739   8.744   0.138
45177W        W87188  22.719  24.701  11.202
45178W        W87189  22.759  13.804   1.828
45179W        W87190  24.799  17.754   9.642
45180W        W87191  24.809  10.614   0.128
45181W        W87192  12.849  20.464   8.182
45182W        W87193  14.159  11.944   1.118
45183W        W87194   2.149   0.734   1.618
45184W        W87195  18.809  21.861   8.432
45185W        W87196  23.739   8.814   8.262
45186W        W87197   3.829   7.774   2.672
45187W        W87198  21.079   8.264   1.068
45188W        W87199  25.159   5.724   1.688
45189W        W87200  21.419  16.864   9.682
45190W        W87201  22.419  21.431   8.962
45191W        W87202   8.469   9.064   8.002
45192W        W87203   0.359  22.781   0.088
45193W        W87204   3.779   5.904   2.068
45194W        W87205   4.489   9.074   7.642
45195W        W87206  20.939  23.001   3.572
45196W        W87207  11.269  13.514   4.122
45197W        W87208   1.449   2.424   9.622
45198W        W87209   9.089  22.341   0.908
45199W        W87210   3.589   5.674   0.278
45200W        W87211  19.109  19.454  10.552
45201W        W87212   5.839   0.084   8.122
45202W        W87213  14.079  13.594   1.988
45203W        W87214  13.889  15.494   0.768
45204W        W87215  23.419  20.164   1.428
45205W        W87216  13.749  19.834   9.252
45206W        W87217  11.459  19.524  15.862
45207W        W87218  17.079  13.264   9.622
45208W        W87219   1.409   1.514   0.398
45209W        W87220   9.689  15.124   9.742
45210W        W87221  14.099   4.064  15.052
45211W        W87222  15.219   1.904  15.612
45212W        W87223   9.559   6.724  10.072
45213W        W87224  21.639  22.981   8.232
45214W        W87225  18.779   3.474   9.692
45215W        W87226  20.379   1.164   2.522
45216W        W87227   7.879   5.874  14.552
45217W        W87228   5.779   6.444   1.848
45218W        W87229  22.369  13.084   8.412
45219W        W87230  20.309   2.864   1.618
45220W        W87231  23.779   4.284   7.942
45221W        W87232   1.869  24.511  11.632
45222W        W87233  24.149  15.254   3.502
45223W        W87234  25.329  15.734   3.352
45224W        W87235  11.469  13.904   1.558
45225W        W87236  18.289  23.661   9.582
45226W        W87237   1.589   2.414   2.972
45227W        W87238  10.419  18.024   2.098
45228W        W87239   8.479  19.934  10.722
45229W        W87240  15.529  23.711  15.612
45230W        W87241   5.149  18.244   1.598
45231W        W87242  16.629  14.084   9.062
45232W        W87243   7.169  13.674  15.022
45233W        W87244   2.809  17.184   1.438
45234W        W87245  21.049  20.644   2.762
45235W        W87246  18.679   6.184  10.502
45236W        W87247   5.409   7.724   2.368
45237W        W87248  12.329  20.084   7.562
45238W        W87249   2.589  17.904   2.652
45239W        W87250   6.949  19.654   0.248
45240W        W87251  22.029  19.864   3.402
45241W        W87252   3.039  18.194  10.332
45242W        W87253   5.689   2.704   8.922
45243W        W87254   7.079  14.644   8.412
45244W        W87255   0.279  22.701   7.312
45245W        W87256   8.909  21.571   4.092
45246W        W87257  19.119   9.204   2.168
45247W        W87258   0.749  12.424  14.962
45248W        W87259  15.119  24.011  12.172
45249W        W87260  12.849  23.941  11.162
45250W        W87261   0.129  14.734   0.748
45251W        W87262  17.849  15.554  10.352
45252W        W87263  20.549  12.744   7.692
45253W        W87264  25.529  19.444   9.652
45254W        W87265   6.779   1.744   1.168
45255W        W87266  24.489   0.454   0.708
45256W        W87267  17.769  22.731  10.302
45257W        W87268   4.589   6.894   6.492
45258W        W87269  12.689   7.994   9.162
45259W        W87270  12.679  15.114   1.118
45260W        W87271   4.739   5.604   2.198
45261W        W87272   5.599   8.844  10.752
45262W        W87273  16.219   6.494   3.032
45263W        W87274   8.769  14.504   2.652
45264W        W87275   8.149  13.694   2.742
45265W        W87276  10.079  13.314   9.282
45266W        W87277  22.829  14.294   9.172
45267W        W87278   5.409   1.084   9.482
45268W        W87279  25.299  22.041   2.258
45269W        W87280  22.029  10.364   9.972
45270W        W87281  16.269   2.084  15.832
45271W        W87282  24.839   3.864   9.452
45272W        W87283  12.189  17.414   9.542
45273W        W87284  22.559   0.644   2.702
45274W        W87285  20.199  11.864   3.362
45275W        W87286  19.509   7.534   2.512
45276W        W87287  18.479  22.371   1.248
45277W        W87288   7.529  23.541   7.982
45278W        W87289  24.979   8.704  11.402
45279W        W87290  16.869   8.364   1.738
45280W        W87291   4.889  14.964  15.772
45281W        W87292  21.829   5.564   2.318
45282W        W87293   7.649   3.354   3.872
45283W        W87294  16.089  18.754   0.188
45284W        W87295  20.369  10.734   8.232
45285W        W87296  17.489   2.344   1.378
45286W        W87297   4.289  18.064   7.662
45287W        W87298  10.449  21.521   2.488
45288W        W87299  17.889  17.794   8.672
45289W        W87300  14.579   0.174   1.398
45290W        W87301  14.519  18.714   1.868
45291W        W87302  16.409  25.591   4.242
45292W        W87303  12.619  22.381   9.402
45293W        W87304   7.939  12.414  15.672
45294W        W87305  15.069   4.714   8.942
45295W        W87306   9.289   4.084   9.912
45296W        W87307   8.439   1.404   1.058
45297W        W87308   6.949   4.884   8.432
45298W        W87309  17.949  17.774  10.802
45299W        W87310  22.819   2.074   8.832
45300W        W87311  23.219   3.734   0.288
45301W        W87312  11.489  11.774   1.288
45302W        W87313  10.109   8.684   4.012
45303W        W87314  20.489   1.754   2.602
45304W        W87315   5.019   5.484   9.122
45305W        W87316   0.669  18.134   4.212
45306W        W87317  12.379  23.481   2.772
45307W        W87318   5.829  18.844  11.262
45308W        W87319  19.519   3.814  10.222
45309W        W87320  23.959   6.344   1.208
45310W        W87321  12.889  11.574   3.632
45311W        W87322  24.629   9.154  11.542
45312W        W87323   2.639   4.874   9.042
45313W        W87324  14.889  10.664   2.008
45314W        W87325   8.409   2.304   3.122
45315W        W87326  12.169  18.814   0.148
45316W        W87327   8.399  17.594  15.692
45317W        W87328  15.449  22.751  11.902
45318W        W87329   3.309  11.304   2.932
45319W        W87330  23.119  22.281   0.428
45320W        W87331  15.629  19.004   0.948
45321W        W87332  13.879   2.264   3.202
45322W        W87333  24.899   9.064   0.088
45323W        W87334   9.989  16.104   1.608
45324W        W87335   6.359  13.674   2.642
45325W        W87336  14.209   6.544   2.178
45326W        W87337  15.209  21.801  10.182
45327W        W87338  16.519   8.474   9.942
45328W        W87339  19.809   2.834  11.432
45329W        W87340   1.349   3.794   0.548
45330W        W87341   1.749   7.034   1.108
45331W        W87342  19.589  10.434  14.812
45332W        W87343   8.259  14.584   2.512
45333W        W87344  24.289  25.261  10.392
45334W        W87345  16.529   4.934   0.708
45335W        W87346  10.929   2.924   3.862
45336W        W87347  24.319  17.874   9.632
45337W        W87348   2.679   7.944   7.622
45338W        W87349   0.099   8.654   0.298
45339W        W87350  20.459  22.351   2.428
45340W        W87351  23.509  10.104   9.582
45341W        W87352  25.559   7.454  10.422
45342W        W87353  13.299   9.034   3.832
45343W        W87354  17.129   9.064   9.882
45344W        W87355  11.959  18.004   3.692
45345W        W87356   7.179  22.251   8.832
45346W        W87357  14.139  18.314  10.132
45347W        W87358  15.269   5.584   1.368
45348W        W87359  22.519  25.041  11.452
45349W        W87360   0.919  25.041  10.052
45350W        W87361  16.229  22.101  11.272
45351W        W87362  19.089   4.424  10.532
45352W        W87363   8.919  18.614   1.148
45353W        W87364  10.019  13.964   1.628
45354W        W87365  12.919  25.081   2.298
45355W        W87366  15.909  22.241   0.688
45356W        W87367   9.799  22.151   2.388
45357W        W87368   8.339  19.704   2.932
45358W        W87369  22.169   8.404   8.322
45359W        W87370  12.949   2.034   4.572
45360W        W87371  19.809   7.324   9.122
45361W        W87372   4.019   1.324   3.192
45362W        W87373   0.729   0.814   8.702
45363W        W87374  14.519  13.444   1.938
45364W        W87375  17.719  15.344  11.862
45365W        W87376  18.039  18.704   8.092
45366W        W87377  23.119   3.914   9.952
45367W        W87378  16.059   8.264   1.398
45368W        W87379  12.509  10.054   2.158
45369W        W87380   0.909  14.894  12.222
45370W        W87381   1.109   6.564   9.042
45371W        W87382   8.309  14.684   1.968
45372W        W87383  25.119   6.704   7.832
45373W        W87384  22.659  18.184   9.472
45374W        W87385  11.929   1.474  15.622
45375W        W87386  24.559   1.554   8.962
45376W        W87387   0.339  24.041   8.022
45377W        W87388   1.179   9.544   9.362
45378W        W87389   2.219  16.394  12.022
45379W        W87390  15.169  23.051   0.478
45380W        W87391   6.579  15.064   0.118
45381W        W87392   7.399   4.014   8.672
45382W        W87393  17.009   6.134   7.782
45383W        W87394  24.359  19.524  10.492
45384W        W87395  11.009  15.244   9.982
45385W        W87396   6.839   3.534  11.022
45386W        W87397  11.099  11.314   0.718
45387W        W87398  10.659   2.264   8.972
45388W        W87399   5.429   6.184   9.582
45389W        W87400   5.589  25.041  15.602
45390W        W87401   9.919   8.614   2.228
45391W        W87402  12.729   0.494  15.292
45392W        W87403  21.489   9.854   6.762
45393W        W87404  16.969  15.694  12.122
45394W        W87405   9.469   0.734  11.252
45395W        W87406  15.049   8.734   1.978
45396W        W87407  23.809  10.424   0.148
45397W        W87408  11.809  21.084  15.342
45398W        W87409  24.719  15.414  15.302
45399W        W87410  24.979  21.951   9.052
45400W        W87411   0.079   9.734   7.722
45401W        W87412  17.509   7.044  15.452
45402W        W87413   6.359   5.934   7.982
45403W        W87414   3.639  21.314   0.468
45404W        W87415   0.729  11.744   8.512
45405W        W87416   5.249  11.154  10.902
45406W        W87417  21.879  17.214   0.698
45407W        W87418  24.269   3.534  11.272
45408W        W87419  19.769   1.954   1.338
45409W        W87420  20.659   4.854   8.312
45410W        W87421   6.969   2.564   7.442
45411W        W87422   3.219   4.984   8.422
45412W        W87423   6.439   1.804  10.132
45413W        W87424  20.969   2.414   7.582
45414W        W87425   6.809   4.994   9.582
45415W        W87426   7.729   4.864   7.582
45416W        W87427   8.619  17.974   1.218
45417W        W87428  14.269  17.754   1.088
45418W        W87429   3.519   7.214   8.992
45419W        W87430   5.889  11.334   1.698
45420W        W87431  10.659  17.894  15.612
45421W        W87432  24.599  15.294   0.698
45422W        W87433  23.739   2.864   1.178
45423W        W87434  24.519  11.824   9.512
45424W        W87435  12.349  22.991  11.652
45425W        W87436  21.459  24.831   3.312
45426W        W87437   8.459  19.774   9.592
45427W        W87438   7.319   9.564   1.058
45428W        W87439  15.709   9.374   9.932
45429W        W87440   2.029  18.244   9.142
45430W        W87441  10.429  22.561   3.182
45431W        W87442  23.139   7.104   0.238
45432W        W87443  22.719  15.284   2.752
45433W        W87444   3.089  10.584   0.198
45434W        W87445   4.939   6.924   1.038
45435W        W87446  23.029  16.074   4.192
45436W        W87447  13.079  14.994   0.048
45437W        W87448  13.769  17.704   3.852
45438W        W87449   4.549   9.524   0.128
45439W        W87450   3.039  20.404   1.788
45440W        W87451   4.619   8.674   1.568
45441W        W87452  17.279  10.394  10.012
45442W        W87453  13.299  24.151  10.362
45443W        W87454  18.939  16.354   2.438
45444W        W87455   5.429  13.464   4.032
45445W        W87456  15.579  15.024  14.722
45446W        W87457  14.689  14.414   1.018
45447W        W87458   0.199  12.074   2.438
45448W        W87459  15.769   1.704  10.272
45449W        W87460  22.259  16.614   1.548
45450W        W87461  21.119  21.561   9.302
45451W        W87462  21.979  22.781   9.672
45452W        W87463  19.519   2.474   4.102
45453W        W87464  21.989  18.724   2.892
45454W        W87465  11.949   5.924   2.398
45455W        W87466   8.289  11.434   8.932
45456W        W87467  17.589  21.671  10.692
45457W        W87468   4.419  14.654   9.632
45458W        W87469  21.539  13.324   1.898
45459W        W87470  10.089  18.284   2.428
45460W        W87471   4.339   6.944   8.252
45461W        W87472  24.239  10.994   9.152
45462W        W87473  21.949  13.614   0.198
45463W        W87474   5.629   4.694   2.498
45464W        W87475   8.999  13.054   3.162
45465W        W87476  21.519  12.014  10.142
45466W        W87477  18.559   8.684   7.842
45467W        W87478  23.849  24.881   2.872
45468W        W87479   5.929   2.054   0.168
45469W        W87480   5.849  22.961   3.642
45470W        W87481  19.579  23.881  10.722
45471W        W87482  12.719  23.081  14.902
45472W        W87483  24.379  18.394  11.752
45473W        W87484   4.859  19.324   2.398
45474W        W87485  20.469  19.524  15.632
45475W        W87486   0.889  17.074   8.252
45476W        W87487  19.659  15.524   2.048
45477W        W87488  16.199   9.744   3.772
45478W        W87489  23.539   6.734  11.462
45479W        W87490  20.689  18.354   9.982
45480W        W87491   0.839  14.844  15.282
45481W        W87492  20.139  14.364   9.292
45482W        W87493   1.049   3.284   8.552
45483W        W87494  17.039   8.224  10.952
45484W        W87495  17.939  19.124   1.108
45485W        W87496   3.859   4.934   9.782
45486W        W87497  23.719   5.304   6.922
45487W        W87498   8.259  20.264   4.342
45488W        W87499   8.929  23.631   8.112
45489W        W87500  20.399  24.681   0.788
45490W        W87501   4.579   7.144   1.408
45491W        W87502   4.999   1.564  11.192
45492W        W87503  23.019   2.554  11.472
45493W        W87504  17.109   7.884   9.232
45494W        W87505   8.529  18.814   1.438
45495W        W87506   8.989  14.904  15.872
45496W        W87507  11.999  20.504   8.912
45497W        W87508  17.659  15.694   3.682
45498W        W87509   0.279   4.994   7.412
45499W        W87510  16.129   9.904   8.662
45500W        W87511  11.939   5.434   9.362
45501W        W87512  20.469  22.801  11.702
45502W        W87513   2.869   2.904   3.312
45503W        W87514  12.169   7.774   9.292
45504W        W87515   2.429   1.684   1.118
45505W        W87516   8.109   7.594  15.532
45506W        W87517  14.839  11.904   1.958
45507W        W87518  21.409  24.681   9.392
45508W        W87519  22.699   6.524   7.682
45509W        W87520  24.519  17.774   1.898
45510W        W87521  19.009   2.914  10.452
45511W        W87522  14.989  12.604  15.542
45512W        W87523  22.119  24.531   0.518
45513W        W87524  22.669   1.264   3.872
45514W        W87525  20.679  25.131  15.522
45515W        W87526   3.619  25.341   2.418
45516W        W87527  22.129   6.944  10.352
45517W        W87528  15.969  13.354   3.372
45518W        W87529  17.209  11.904   7.832
45519W        W87530  19.959   9.184   2.722
45520W        W87531  23.009  21.961   7.442
45521W        W87532  23.909  16.544   8.612
45522W        W87533  15.539  20.354   9.872
45523W        W87534  20.339  18.494  11.502
45524W        W87535  21.699  21.561  12.232
45525W        W87536  20.209  25.351   2.008
45526W        W87537  22.719  16.494   9.892
45527W        W87538  10.769   4.754   3.012
45528W        W87539   2.109  21.344   3.362
45529W        W87540   9.799   9.154   2.138
45530W        W87541  21.719  22.661  10.322
45531W        W87542  23.829   8.074   8.782
45532W        W87543   8.419  18.374   1.868
45533W        W87544  12.039  23.681   0.518
45534W        W87545   9.939  17.514   0.288
45535W        W87546  14.989   5.324  10.682
45536W        W87547  14.469  19.414   0.638
45537W        W87548   3.899   2.734   0.008
45538W        W87549   4.939   4.844  10.312
45539W        W87550  14.419  24.491  10.502
45540W        W87551   8.889   7.944  15.792
45541W        W87552   3.229   4.154   3.332
45542W        W87553  17.319   5.104   2.572
45543W        W87554   1.999  23.591   9.892
45544W        W87555   3.009  18.284   2.592
45545W        W87556  12.029  16.754   2.872
45546W        W87557  17.159  12.404   1.498
45547W        W87558  18.849  16.084   3.302
45548W        W87559  14.679  17.464  11.092
45549W        W87560   0.229   8.364   7.612
45550W        W87561   1.479  15.234  15.862
45551W        W87562  15.839  23.911   0.468
45552W        W87563  14.089  15.274   9.102
45553W        W87564  25.009  23.101   1.378
45554W        W87565   2.009  23.191  15.782
45555W        W87566   5.259  13.384   8.052
45556W        W87567  17.329   8.834   2.368
45557W        W87568  12.859  15.584   9.722
45558W        W87569  23.029   0.104  12.382
45559W        W87570   4.889   7.824   8.072
45560W        W87571  25.369  13.034   1.028
45561W        W87572  25.409   0.664   1.428
45562W        W87573   2.659  11.694   9.092
45563W        W87574   7.299   6.814   8.382
45564W        W87575   6.429   6.784   8.542
45565W        W87576   7.549   5.244  15.452
45566W        W87577  22.969   0.584   0.428
45567W        W87578   3.969  14.374   3.682
45568W        W87579  11.919   2.984   8.812
45569W        W87580  15.009   9.904   9.922
45570W        W87581  15.489   8.454   0.798
45571W        W87582  15.989   5.104  10.162
45572W        W87583  21.719  23.311   0.748
45573W        W87584   3.229  10.254   7.362
45574W        W87585  14.969  14.944   9.672
45575W        W87586  17.589  25.431  15.622
45576W        W87587  22.319   9.634  11.072
45577W        W87588   5.289   8.674   8.302
45578W        W87589  12.759   7.854   1.898
45579W        W87590   4.589  24.621   0.308
45580W        W87591  25.169  16.344  10.052
45581W        W87592  16.059   1.654   4.512
45582W        W87593  17.559   4.354   1.628
45583W        W87594   6.239  20.184   8.702
45584W        W87595   3.039  20.674  11.652
45585W        W87596  19.519  15.484   1.578
45586W        W87597   0.249  25.091   1.528
45587W        W87598  17.999  16.334   9.612
45588W        W87599  21.529  12.104  10.752
45589W        W87600  18.589  15.224   1.878
45590W        W87601  21.859  11.714   0.328
45591W        W87602   3.089  12.514  10.442
45592W        W87603   9.019  23.891   0.168
45593W        W87604  25.309  14.804  10.102
45594W        W87605  17.919   6.894   3.492
45595W        W87606   5.059  16.944   1.608
45596W        W87607  23.509  22.631   1.978
45597W        W87608   9.519  17.044   8.932
45598W        W87609  20.869   4.414   1.178
45599W        W87610  13.179  17.434   2.782
45600W        W87611  14.749  21.971   9.902
45601W        W87612  10.429  18.584   2.208
45602W        W87613   8.759   3.804  15.792
45603W        W87614  23.699  23.201  11.592
45604W        W87615  16.159   0.374   8.492
45605W        W87616  25.079   7.614   2.128
45606W        W87617  18.029  15.794   8.782
45607W        W87618   0.569  10.634   9.922
45608W        W87619   0.879   3.974   8.672
45609W        W87620   4.559  20.834  10.092
45610W        W87621  11.239  16.674   2.572
45611W        W87622   3.769  21.334  15.342
45612W        W87623  17.799  18.974   3.452
45613W        W87624   8.049  18.894  15.632
45614W        W87625  22.079  23.011  11.092
45615W        W87626  25.009  17.744   7.602
45616W        W87627   0.149  23.271   2.118
45617W        W87628  19.049   9.424   3.552
45618W        W87629  10.199   7.664  10.152
45619W        W87630   8.559  24.231   8.532
45620W        W87631  14.089  23.901   4.242
45621W        W87632  14.659   2.574   0.888
45622W        W87633  20.049  23.951  15.802
45623W        W87634  10.069  13.054  15.532
45624W        W87635   9.069   5.544  10.522
45625W        W87636   3.849  22.451  11.682
45626W        W87637  15.939   3.584   3.652
45627W        W87638  14.689   0.194  10.012
45628W        W87639   8.389  22.251  11.102
45629W        W87640  20.909  10.244   3.902
45630W        W87641  19.149  14.344  10.632
45631W        W87642  16.059   4.744  11.322
45632W        W87643   4.549  22.831   9.652
45633W        W87644  10.349  19.404   8.192
45634W        W87645  19.669  23.411   7.782
45635W        W87646   4.469   2.764  11.892
45636W        W87647  15.999  12.854   4.172
45637W        W87648   1.249  13.414  11.322
45638W        W87649  24.869  23.981   3.542
45639W        W87650  12.659  21.104   3.322
45640W        W87651   5.179   7.384   1.948
45641W        W87652   1.389  16.574   0.108
45642W        W87653  17.119  11.424   9.282
45643W        W87654  11.829  22.351   9.052
45644W        W87655  17.259  14.614   8.902
45645W        W87656  10.379  17.774   3.882
45646W        W87657  25.509   3.934   7.782
45647W        W87658   6.889  18.714  15.792
45648W        W87659   9.819   5.024   0.498
45649W        W87660  21.729   4.804   0.158
45650W        W87661  10.189  22.791   8.902
45651W        W87662  17.999   9.464   0.548
45652W        W87663  17.389  17.814   2.842
45653W        W87664   2.949  21.571   2.622
45654W        W87665  12.819  15.744   8.932
45655W        W87666   2.679  11.014  10.382
45656W        W87667  17.609  15.484   2.792
45657W        W87668  13.139  10.014   4.782
45658W        W87669  22.829   1.674   7.142
45659W        W87670   8.199  18.044   0.958
45660W        W87671   0.159  19.574   7.832
45661W        W87672  20.619  10.184   2.922
45662W        W87673  17.009  16.634  10.302
45663W        W87674  20.019  11.894   8.772
45664W        W87675  15.689   5.514  10.322
45665W        W87676   5.239   7.074   8.502
45666W        W87677   2.949   3.174  10.202
45667W        W87678   7.059   8.994   2.148
45668W        W87679  24.539   2.864   7.762
45669W        W87680   2.019   4.634   0.968
45670W        W87681   5.149  13.064  10.582
45671W        W87682  11.809  24.451   4.582
45672W        W87683  25.569  23.241   1.268
45673W        W87684   9.489  18.284   1.348
45674W        W87685  23.359  12.464   1.608
45675W        W87686   8.119  20.034   1.058
45676W        W87687  19.909   1.004   1.848
45677W        W87688  12.209  10.634   0.488
45678W        W87689  21.329  18.124  10.062
45679W        W87690  21.949   3.354   3.292
45680W        W87691  12.539  23.881  10.602
45681W        W87692  23.609   8.594   0.268
45682W        W87693  24.279  22.281  15.602
45683W        W87694   5.719  22.711   2.952
45684W        W87695  20.009  16.114  10.202
45685W        W87696  24.659  10.894   9.392
45686W        W87697  18.309  12.304  15.562
45687W        W87698  24.729  22.291   8.712
45688W        W87699  18.519  20.004   8.752
45689W        W87700   7.219   2.934  15.402
45690W        W87701  24.709   9.494   0.178
45691W        W87702   2.199   5.054   0.118
45692W        W87703  12.479  19.394   0.998
45693W        W87704   3.539  21.941   3.162
45694W        W87705  18.889   7.394   9.162
45695W        W87706   9.569  16.884   3.422
45696W        W87707  21.619  24.961   4.272
45697W        W87708  24.049   3.784   2.782
45698W        W87709  24.949  24.851   7.652
45699W        W87710  16.009  25.141  14.732
45700W        W87711  10.859  17.554   4.042
45701W        W87712  19.419  19.374   8.842
45702W        W87713  21.329   7.354   2.188
45703W        W87714  13.119   3.704   0.358
45704W        W87715  24.939   6.634  11.752
45705W        W87716  23.879  21.421   3.182
45706W        W87717  22.269  12.714   2.198
45707W        W87718  12.219  16.304   2.852
45708W        W87719   9.399   7.914   1.938
45709W        W87720  13.259   6.184   2.542
45710W        W87721   2.519  20.364   2.582
45711W        W87722  18.469  19.044   9.082
45712W        W87723  25.519   2.334   9.512
45713W        W87724  23.769  11.634  15.612
45714W        W87725  20.949  22.631   8.822
45715W        W87726  19.499  16.544   7.522
45716W        W87727  20.839  21.791  11.792
45717W        W87728  23.789  22.451   2.692
45718W        W87729   1.209   7.354   8.602
45719W        W87730  24.769  13.014   2.298
45720W        W87731  12.989  15.114   2.512
45721W        W87732  18.989  13.814   1.108
45722W        W87733   0.269   2.164  11.142
45723W        W87734  15.029   8.734   8.862
45724W        W87735  16.689  11.344   9.592
45725W        W87736   6.609  17.524   9.392
45726W        W87737  18.769   3.604  10.802
45727W        W87738  20.509   5.124   8.742
45728W        W87739   2.729  14.314   0.358
45729W        W87740  12.059  24.501   0.968
45730W        W87741  22.349  11.754   0.658
45731W        W87742  25.539  10.914  11.702
45732W        W87743   8.369   7.364   1.788
45733W        W87744   4.939   8.554   9.292
45734W        W87745  19.429   4.664  10.872
45735W        W87746   5.609  23.611   0.828
45736W        W87747   6.899   7.584   8.042
45737W        W87748   7.359  22.791   0.518
45738W        W87749  25.119   4.324   2.008
45739W        W87750  18.409  10.894   8.712
45740W        W87751  20.029  25.201   2.602
45741W        W87752   1.859   3.464   2.468
45742W        W87753  23.989  23.841   8.292
45743W        W87754  24.909  14.934   1.298
45744W        W87755  20.119  14.294   8.062
45745W        W87756  12.259  23.181  15.742
45746W        W87757  19.389  22.271   1.518
45747W        W87758   5.569  23.231  10.092
45748W        W87759  15.279  15.584  10.752
45749W        W87760   7.999  11.154   3.362
45750W        W87761   4.259   5.654   0.238
45751W        W87762  16.819   6.704   8.782
45752W        W87763   3.769   8.974   7.902
45753W        W87764  16.299  16.934  15.702
45754W        W87765  21.559  19.134   9.092
45755W        W87766  16.899  20.884   2.228
45756W        W87767  13.909  15.134   2.278
45757W        W87768  15.439   5.024   8.982
45758W        W87769   6.949  10.914   9.832
45759W        W87770   3.979  17.944   0.028
45760W        W87771  22.529  23.641   0.558
45761W        W87772   0.409   1.544   8.902
45762W        W87773  17.039  25.141   1.638
45763W        W87774  14.519   9.544   2.358
45764W        W87775  23.259  11.534   0.468
45765W        W87776  23.619  24.501   3.082
45766W        W87777  19.129   3.904  10.562
45767W        W87778   6.989  13.764   1.378
45768W        W87779  17.449   7.554   9.042
45769W        W87780  24.209   1.764   7.592
45770W        W87781  20.849  24.401   4.012
45771W        W87782  12.429  20.244   2.488
45772W        W87783  15.849   9.444   3.442
45773W        W87784  16.199  25.001  15.242
45774W        W87785   5.559  18.754   0.008
45775W        W87786  12.779   8.264   3.232
45776W        W87787   0.499  21.214   7.242
45777W        W87788  18.949  19.024  10.422
45778W        W87789   5.459  15.384   8.572
45779W        W87790  14.899  23.521   2.952
45780W        W87791  12.249  11.114   2.468
45781W        W87792   1.229   2.874   3.352
45782W        W87793  14.579  11.494   8.652
45783W        W87794  22.009   1.794  11.162
45784W        W87795   1.909   3.584   9.332
45785W        W87796   0.329  15.054   0.258
45786W        W87797  10.169  15.364  14.452
45787W        W87798  20.079   5.974   8.632
45788W        W87799  22.529   8.874   2.762
45789W        W87800  24.639   8.564   2.158
45790W        W87801  21.779  15.834   7.992
45791W        W87802   8.299   7.784   4.432
45792W        W87803   2.129  23.881   7.432
45793W        W87804   7.039   0.514   9.482
45794W        W87805  18.699   0.154   8.782
45795W        W87806  20.909   7.004   9.952
45796W        W87807  20.529   0.564   7.452
45797W        W87808  12.319  18.524   4.272
45798W        W87809  18.309  10.154  15.822
45799W        W87810   3.069  18.864   1.588
45800W        W87811   6.469   1.254   9.472
45801W        W87812  24.789   6.934   0.988
45802W        W87813  16.059  23.211  11.022
45803W        W87814  11.449   1.174   0.518
45804W        W87815   2.209  25.581   7.662
45805W        W87816   1.989   8.064   0.758
45806W        W87817  10.939  19.444   4.952
45807W        W87818   7.239   7.954  14.492
45808W        W87819  18.149   8.904   7.882
45809W        W87820  16.349  12.274   4.682
45810W        W87821   5.359   6.474   0.298
45811W        W87822  19.339  18.724  11.072
45812W        W87823  19.279  22.621   0.588
45813W        W87824  18.759  14.494   3.082
45814W        W87825   7.869  23.431   2.682
45815W        W87826   7.929  25.201   3.122
45816W        W87827  19.489  23.661  12.492
45817W        W87828  12.199  15.834  14.182
45818W        W87829   8.139   3.844   8.072
45819W        W87830  18.309  20.744   2.298
45820W        W87831   1.999   6.404  11.002
45821W        W87832  21.189   0.004   9.102
45822W        W87833   4.729   5.874   8.902
45823W        W87834   9.869  15.744   3.952
45824W        W87835  10.249   7.994   1.998
45825W        W87836   7.699  20.104  15.042
45826W        W87837  12.389   1.414   4.582
45827W        W87838  19.409  19.054  15.502
45828W        W87839  11.339  10.834  15.322
45829W        W87840  23.999   1.214   9.572
45830W        W87841   5.669  13.154  10.312
45831W        W87842   5.929  20.564   9.482
45832W        W87843  21.939  21.481  12.742
45833W        W87844  11.869   9.254   3.852
45834W        W87845  16.579  23.511   0.678
45835W        W87846   7.109  12.014   3.442
45836W        W87847  23.209  19.784   0.428
45837W        W87848  13.579  16.334   9.402
45838W        W87849  11.309  22.991   9.902
45839W        W87850   1.439   4.304   9.902
45840W        W87851  22.999   2.694   0.868
45841W        W87852   6.319   4.844  15.832
45842W        W87853   7.639  12.284   1.258
45843W        W87854  16.079   7.914   2.572
45844W        W87855   0.179  18.294   1.638
45845W        W87856  11.179   8.554   3.402
45846W        W87857   1.469  11.154   3.192
45847W        W87858  22.459  16.724   3.382
45848W        W87859  20.469   3.374   1.638
45849W        W87860   8.289   3.194   2.802
45850W        W87861   1.119   0.524  11.652
45851W        W87862   4.479  21.811   1.478
45852W        W87863   5.429  15.234   2.852
45853W        W87864  24.689   9.974   2.592
45854W        W87865  11.329  21.961   4.792
45855W        W87866  20.959  12.784   9.832
45856W        W87867  21.969  19.684   1.878
45857W        W87868  10.909  11.364   9.702
45858W        W87869   2.139  12.324   1.648
45859W        W87870  10.659  22.771   4.442
45860W        W87871   5.299   7.824  15.382
45861W        W87872  23.149   7.394   7.672
45862W        W87873  21.299   5.684   9.392
45863W        W87874   7.449   4.214   0.858
45864W        W87875  10.659   5.824   0.828
45865W        W87876  18.259  10.444  15.002
45866W        W87877  22.389  20.894   8.202
45867W        W87878  22.859   4.364   0.978
45868W        W87879   9.729  10.814   2.468
45869W        W87880   0.509  10.954   1.888
45870W        W87881  20.789  14.844   8.392
45871W        W87882  12.909  24.341   3.992
45872W        W87883  13.389   2.204  10.512
45873W        W87884  16.129  10.594   0.578
45874W        W87885  13.609   6.814  14.752
45875W        W87886   1.889   3.154   1.108
45876W        W87887   0.139  10.974   9.822
45877W        W87888   3.089  13.614   8.692
45878W        W87889   7.089   9.214   8.342
45879W        W87890  15.939   0.554   1.678
45880W        W87891  23.359  24.531  11.582
45881W        W87892   4.489   1.374  11.152
45882W        W87893  12.519   5.204   2.832
45883W        W87894  23.119  11.744   9.102
45884W        W87895  24.999   1.344   0.088
45885W        W87896   9.259  10.934   2.622
45886W        W87897   5.279  12.024   2.662
45887W        W87898  16.879  10.104  10.202
45888W        W87899  14.529   5.834  15.502
45889W        W87900  15.439   1.444  10.022
45890W        W87901   8.819   4.484  10.992
45891W        W87902   6.219   3.774   0.078
45892W        W87903   3.689   0.844  11.752
45893W        W87904   5.699  18.684   3.972
45894W        W87905   7.249   8.574  14.372
45895W        W87906  11.749  13.764   0.258
45896W        W87907  12.029  15.724   2.682
45897W        W87908  12.509   9.624  15.632
45898W        W87909  14.409  13.544   2.632
45899W        W87910   8.409   9.824   2.602
45900W        W87911   2.889  14.294   9.732
45901W        W87912  24.289   9.554   0.768
45902W        W87913   3.709  14.254   1.258
45903W        W87914  21.629  18.074   0.398
45904W        W87915   0.819   5.354   8.972
45905W        W87916  20.049  16.784  11.042
45906W        W87917   8.799  16.304  10.872
45907W        W87918  18.359  17.994   6.952
45908W        W87919   5.439   1.334  10.472
45909W        W87920   9.179   6.944   1.998
45910W        W87921   3.479  11.574   0.138
45911W        W87922  14.049  16.984   4.142
45912W        W87923  19.639  11.454   3.892
45913W        W87924  21.209  10.374   0.358
45914W        W87925  21.459   4.954   0.888
45915W        W87926   5.849  24.901   8.382
45916W        W87927   3.399  12.914   3.262
45917W        W87928  23.219   0.894   9.702
45918W        W87929  24.359   3.014  11.232
45919W        W87930   0.979  14.594   0.568
45920W        W87931   2.819   0.234  10.572
45921W        W87932  20.749  12.694  10.392
45922W        W87933  11.799   1.704   0.588
45923W        W87934  12.249   3.504   2.782
45924W        W87935  17.169  10.674   3.212
45925W        W87936  18.389   0.994  15.542
45926W        W87937   4.059  16.744   8.002
45927W        W87938   2.619  24.941  10.662
45928W        W87939   3.269  23.091   7.772
45929W        W87940  19.329  14.224  15.692
45930W        W87941   3.939  22.891  11.432
45931W        W87942  14.479   8.174   2.872
45932W        W87943   1.779   0.124   7.422
45933W        W87944  21.549   0.784   3.402
45934W        W87945  10.079  20.314   0.048
45935W        W87946   5.479  24.201   9.552
45936W        W87947  15.079  24.981   2.942
45937W        W87948  25.249   3.494   1.768
45938W        W87949   6.039  24.061   3.422
45939W        W87950   7.719   3.404   0.108
45940W        W87951  19.229   3.874   7.422
45941W        W87952  22.339   3.294   2.408
45942W        W87953  23.969  15.494   9.172
45943W        W87954  14.359  11.504   9.352
45944W        W87955   9.549  24.101   3.272
45945W        W87956  16.209   6.034  14.422
45946W        W87957   1.159  12.004  15.462
45947W        W87958   8.599  14.254   9.952
45948W        W87959  19.599   6.944  10.052
45949W        W87960   5.559  17.084   8.392
45950W        W87961   4.619  16.724   3.582
45951W        W87962  16.669   0.964   9.322
45952W        W87963  17.979  17.314  11.652
45953W        W87964  23.929  15.314  11.102
45954W        W87965  12.909  19.364   4.472
45955W        W87966  24.989  19.214   9.862
45956W        W87967  15.879   6.274   2.732
45957W        W87968   9.099  11.214   3.522
45958W        W87969  21.969  25.561   2.048
45959W        W87970  10.239   0.964   2.932
45960W        W87971   7.809   2.264   9.092
45961W        W87972  11.829   4.734   3.182
45962W        W87973   0.179  25.411   9.592
45963W        W87974   8.359   0.384   1.988
45964W        W87975  10.109  18.184  10.752
45965W        W87976  13.479  10.844   2.712
45966W        W87977   9.319   2.784   3.032
45967W        W87978   1.629   2.074   3.962
45968W        W87979  25.479  16.154  10.442
45969W        W87980  13.129  10.864   4.062
45970W        W87981  15.869   1.004   2.058
45971W        W87982  18.959   1.844  10.472
45972W        W87983   0.879   7.724   8.652
45973W        W87984   0.349   1.284  14.942
45974W        W87985  15.479   2.094   9.362
45975W        W87986  21.229   6.814  10.292
45976W        W87987  25.019  15.244   2.992
45977W        W87988   6.929  10.114   2.138
45978W        W87989  22.889   3.874   1.028
45979W        W87990   9.299   1.634   2.398
45980W        W87991   5.999  20.004  11.712
45981W        W87992  20.639  18.924  11.682
45982W        W87993   2.949   2.004  10.742
45983W        W87994   7.709  13.224   0.278
45984W        W87995   8.919  15.984   2.168
45985W        W87996   7.779  13.704   9.282
45986W        W87997  21.089  22.561   2.458
45987W        W87998  15.989   0.014   0.478
45988W        W87999  16.459   1.984  11.682
45989W        W88000  24.579   6.544   9.022
45990W        W88001  10.629  10.594   1.598
45991W        W88002  24.929   1.554   6.932
45992W        W88003   0.229  16.904  12.492
45993W        W88004  18.389  22.981   1.648
45994W        W88005  22.649   2.104   0.358
45995W        W88006  10.149  10.684   0.018
45996W        W88007   4.749   0.054   1.098
45997W        W88008  10.139   2.774   8.112
45998W        W88009  18.979   9.664   0.398
45999W        W88010  15.759   4.174   4.382
46000W        W88011   7.899  17.734   2.932
46001W        W88012  24.859  15.694   9.992
46002W        W88013  18.859  25.011   2.088
46003W        W88014  12.359  13.424  14.982
46004W        W88015  23.979   3.394   3.212
46005W        W88016   8.669  14.424  15.232
46006W        W88017  19.329  13.774  15.422
46007W        W88018   4.079  12.924   1.038
46008W        W88019  22.739   1.034   0.178
46009W        W88020  17.309   2.554   1.888
46010W        W88021  13.319   8.524   9.452
46011W        W88022  23.379   7.864   8.602
46012W        W88023   2.009   3.584   7.802
46013W        W88024   6.629  12.374   8.642
46014W        W88025  18.399  19.424   9.652
46015W        W88026  15.519   5.314   2.782
46016W        W88027  18.169   8.014   0.618
46017W        W88028  17.529  20.954   9.062
46018W        W88029  21.849   1.954   0.618
46019W        W88030   0.549  13.514  15.752
46020W        W88031   3.389  21.691   9.722
46021W        W88032  10.829  20.854   1.098
46022W        W88033  17.069  17.254   7.082
46023W        W88034  19.419   2.544  11.192
46024W        W88035   8.159   4.644  14.872
46025W        W88036   1.989  15.344   0.078
46026W        W88037   1.549   3.554   2.882
46027W        W88038  23.979   9.684   2.852
46028W        W88039  14.519  25.101  15.492
46029W        W88040  11.749   4.114   3.972
46030W        W88041   5.249  18.724  11.812
46031W        W88042  11.059  15.644   2.622
46032W        W88043  24.099  22.401   7.902
46033W        W88044   1.149  12.724  14.882
46034W        W88045   5.869  13.784   1.868
46035W        W88046   6.599   9.214   2.328
46036W        W88047   6.189   6.584   1.888
46037W        W88048   4.199   1.284   9.742
46038W        W88049  16.619  18.464  10.922
46039W        W88050  22.469  15.934   8.612
46040W        W88051   8.689  12.524   3.172
46041W        W88052  25.449   1.214   0.258
46042W        W88053  24.609  20.404   8.722
46043W        W88054   2.349   8.564   0.008
46044W        W88055  10.839  16.894   8.972
46045W        W88056  21.349  21.154  12.132
46046W        W88057  11.069   9.634   4.262
46047W        W88058  18.199   1.414   9.102
46048W        W88059   5.069  17.354  10.472
46049W        W88060  11.139   0.604  15.352
46050W        W88061  15.939   8.464  10.632
46051W        W88062  13.479  24.551   3.742
46052W        W88063  14.939  20.634   8.912
46053W        W88064  21.029   8.314   1.798
46054W        W88065  18.369  16.134   0.888
46055W        W88066   3.149  12.834   7.022
46056W        W88067  12.249  13.014  15.482
46057W        W88068   7.179  14.314   3.402
46058W        W88069  20.839   6.594   8.772
46059W        W88070  14.689  10.594  15.412
46060W        W88071   6.539  15.054  10.782
46061W        W88072  24.369   2.904  10.782
46062W        W88073  14.849  15.994  10.522
46063W        W88074   6.649   1.284   8.152
46064W        W88075  19.919  17.234   3.712
46065W        W88076  16.039  17.964  15.542
46066W        W88077   5.649   4.814   8.782
46067W        W88078   3.469  25.351   8.932
46068W        W88079  10.559  13.914  15.842
46069W        W88080  20.129  23.081  15.852
46070W        W88081   1.799   8.114   9.142
46071W        W88082   1.139  13.934   2.892
46072W        W88083   4.269   5.894   9.682
46073W        W88084   4.909  13.034   8.582
46074W        W88085   7.679  14.694   1.228
46075W        W88086  12.919  11.934   4.072
46076W        W88087  25.399  22.061   7.212
46077W        W88088  19.799  16.644  10.322
46078W        W88089  16.969  13.974   7.852
46079W        W88090  15.479   4.004   2.512
46080W        W88091   4.999   9.234  15.362
46081W        W88092  18.769   6.794   1.408
46082W        W88093   1.589  19.564   1.908
46083W        W88094   0.059   5.544   8.182
46084W        W88095  13.149  20.374   8.612
46085W        W88096   2.089  17.984   9.592
46086W        W88097   3.079  20.624   1.298
46087W        W88098  14.959   5.764   2.118
46088W        W88099   1.089  10.954  11.332
46089W        W88100  19.469  19.974  15.852
46090W        W88101   5.439  20.994   1.908
46091W        W88102   0.011   1.914   0.948
46092W        W88103  20.139   6.954   9.782
46093W        W88104  21.109  18.854  10.712
46094W        W88105   8.819   0.024   0.958
46095W        W88106   9.249  12.164  15.192
46096W        W88107   6.049  24.431  10.192
46097W        W88108   5.219  16.654   9.812
46098W        W88109  25.289  15.944   0.988
46099W        W88110   3.089  24.461   9.342
46100W        W88111  17.119   1.524   3.802
46101W        W88112   7.189   2.764   8.662
46102W        W88113  11.249  12.594   2.298
46103W        W88114  21.179  15.364   3.422
46104W        W88115  11.949  13.624   0.858
46105W        W88116   5.309  14.354   1.518
46106W        W88117  13.279  14.544  10.602
46107W        W88118   8.039   3.724   2.478
46108W        W88119   1.699   4.934   1.188
46109W        W88120   2.769  12.894   1.408
46110W        W88121  13.149   7.494   0.528
46111W        W88122  12.809   5.434   2.238
46112W        W88123  21.639  20.754   3.422
46113W        W88124  18.499   8.474  10.392
46114W        W88125   4.549  22.131  10.902
46115W        W88126  21.429   6.774  10.862
46116W        W88127   2.049   9.014   9.052
46117W        W88128  18.889   3.634   0.668
46118W        W88129  21.569  14.474   2.762
46119W        W88130  20.029  22.171   2.632
46120W        W88131   9.599  21.681   2.542
46121W        W88132  21.279  16.594   1.518
46122W        W88133  20.589  14.484   2.592
46123W        W88134   5.509  21.531   2.368
46124W        W88135   5.489  24.631   9.242
46125W        W88136   0.041  17.174  10.342
46126W        W88137  15.099  20.284   0.498
46127W        W88138   6.999   8.594   2.682
46128W        W88139   8.319  14.304   3.382
46129W        W88140  22.909  14.254  10.112
46130W        W88141  11.309  19.024   0.128
46131W        W88142  12.609  25.551   9.472
46132W        W88143   0.609   7.184   7.982
46133W        W88144  17.619   8.534   9.682
46134W        W88145   7.229   4.584  14.972
46135W        W88146   8.489   6.164  15.182
46136W        W88147  13.729   4.894   1.578
46137W        W88148  15.719  23.121   2.208
46138W        W88149  23.609  17.334   1.218
46139W        W88150  17.509   9.004   9.482
46140W        W88151   9.649  12.734  15.472
46141W        W88152   3.999   3.784   7.962
46142W        W88153   4.229   9.664   0.518
46143W        W88154  16.409  10.414   3.022
46144W        W88155   7.299   2.834  11.082
46145W        W88156   2.359  23.101  11.442
46146W        W88157  17.739   6.114   3.612
46147W        W88158   7.589   6.264  15.512
46148W        W88159   1.099   1.524   8.302
46149W        W88160  12.609  19.094  15.862
46150W        W88161  13.959  22.341   9.352
46151W        W88162  11.179   1.784   7.912
46152W        W88163  15.969  10.814  15.432
46153W        W88164  20.769  16.884  12.112
46154W        W88165  17.359  12.254  15.562
46155W        W88166  10.029   6.714   0.448
46156W        W88167  13.499   1.324   1.138
46157W        W88168   7.909   3.924  15.512
46158W        W88169   5.749  24.411   2.388
46159W        W88170  23.419  20.374  12.092
46160W        W88171  22.929  17.564   7.232
46161W        W88172  24.589  20.694  10.752
46162W        W88173  17.329  16.884   2.542
46163W        W88174   2.549  24.031   8.722
46164W        W88175  14.669  18.434   9.002
46165W        W88176   6.339  12.854   7.942
46166W        W88177  24.909   7.274   7.812
46167W        W88178   1.129   3.394   0.758
46168W        W88179  11.599   4.434   1.298
46169W        W88180  17.889   1.974   2.328
46170W        W88181   0.839   0.234   9.842
46171W        W88182  23.019  18.104   9.112
46172W        W88183  12.689  23.821   1.548
46173W        W88184  17.949   6.754   2.982
46174W        W88185   7.229  10.614   0.218
46175W        W88186  19.969   5.584   1.498
46176W        W88187  18.389   4.434   8.922
46177W        W88188  25.169  18.054  10.682
46178W        W88189   5.939  19.294   1.568
46179W        W88190  12.259  16.074   4.582
46180W        W88191  16.359  20.534   0.158
46181W        W88192  17.559   0.484   1.108
46182W        W88193  24.549   8.454   9.292
46183W        W88194  19.169  11.214   3.762
46184W        W88195   1.649  11.854  15.602
46185W        W88196  19.169  12.484   9.762
46186W        W88197  18.219   2.414   0.498
46187W        W88198  18.069   2.784   9.672
46188W        W88199  24.489   8.184   0.258
46189W        W88200  14.659  16.324  15.712
46190W        W88201  17.159   9.784   0.448
46191W        W88202  20.449  14.914  11.262
46192W        W88203  13.879   4.374  15.382
46193W        W88204  18.429  23.601   0.498
46194W        W88205   0.059   2.584  10.492
46195W        W88206  20.229   5.714  11.102
46196W        W88207   1.859  16.444   0.288
46197W        W88208  10.399   6.824  15.872
46198W        W88209  17.199   5.944   9.722
46199W        W88210  11.569  24.601   3.292
46200W        W88211  17.979  16.714   7.792
46201W        W88212  23.199  16.464   1.048
46202W        W88213  14.609   7.704  10.302
46203W        W88214  17.309   8.284   3.462
46204W        W88215   2.919   5.604   9.222
46205W        W88216  17.339  10.884  10.122
46206W        W88217   3.819  20.594   3.452
46207W        W88218  13.969  12.494  15.152
46208W        W88219   3.789  23.461   1.638
46209W        W88220   9.669  20.504   2.832
46210W        W88221  25.179  21.094   4.132
46211W        W88222   9.139   0.984   1.838
46212W        W88223  18.039   8.264  10.372
46213W        W88224   3.849   0.094  15.782
46214W        W88225   3.049   0.274  15.232
46215W        W88226  10.889  24.961   9.862
46216W        W88227  23.659   7.394   2.542
46217W        W88228  15.849   6.914   8.872
46218W        W88229  15.809  17.364   9.022
46219W        W88230   7.159   9.824   7.532
46220W        W88231   9.369   7.544   8.502
46221W        W88232  20.269  13.554   2.512
46222W        W88233  22.119  20.164   1.668
46223W        W88234  14.019  23.551   0.258
46224W        W88235   6.899   8.794  10.382
46225W        W88236   9.849  21.024   3.692
46226W        W88237  25.129   7.214   8.612
46227W        W88238  21.589   7.684   8.742
46228W        W88239  23.549  25.051   1.488
46229W        W88240  22.509   2.794   2.458
46230W        W88241  16.279  20.784   0.958
46231W        W88242  18.169  15.864   2.872
46232W        W88243  15.869  14.374  11.352
46233W        W88244   5.199  23.901   0.678
46234W        W88245  18.629  19.734   1.538
46235W        W88246  22.869   5.184  15.652
46236W        W88247   4.119   4.554   0.328
46237W        W88248   8.569   0.804  15.802
46238W        W88249  13.499  13.854   1.308
46239W        W88250   2.679  17.614   1.238
46240W        W88251  17.029   3.434   1.758
46241W        W88252  10.469  10.224   8.902
46242W        W88253  18.499  25.071   3.522
46243W        W88254   7.099  12.084  15.832
46244W        W88255   8.119  17.374  10.942
46245W        W88256   3.939   2.324  15.122
46246W        W88257  21.929  23.271   9.422
46247W        W88258   8.619  10.714   1.938
46248W        W88259  22.999  24.501   1.638
46249W        W88260  18.109  14.304   9.812
46250W        W88261   5.829   7.074   8.672
46251W        W88262  23.669  19.224   8.652
46252W        W88263   2.809   8.484   0.118
46253W        W88264   8.989  21.264   0.888
46254W        W88265  23.189  13.824   2.398
46255W        W88266  25.339  19.114   8.362
46256W        W88267   9.519   1.694   9.642
46257W        W88268  17.859   6.514   8.922
46258W        W88269   6.299  11.974   8.552
46259W        W88270  12.399   9.314   4.952
46260W        W88271  22.949  19.724   8.532
46261W        W88272   5.019   8.974   9.632
46262W        W88273   4.639  21.391  10.802
46263W        W88274   7.739  15.714   9.942
46264W        W88275  18.359   1.514  11.942
46265W        W88276   7.569   9.924   1.268
46266W        W88277  22.839  21.451  11.502
46267W        W88278  22.899  17.344   2.218
46268W        W88279  23.499  13.254   7.372
46269W        W88280   3.549  24.191  15.192
46270W        W88281  11.739  24.141   3.262
46271W        W88282  13.089   5.584   1.828
46272W        W88283  12.979   7.764  15.612
46273W        W88284  19.489   3.044   2.108
46274W        W88285  10.819  10.574   9.132
46275W        W88286   2.519  10.314   2.992
46276W        W88287  22.579  17.864  11.182
46277W        W88288   7.389  20.734   3.192
46278W        W88289   7.419  19.984   2.922
46279W        W88290   6.169   0.954   3.812
46280W        W88291  19.239   1.134   2.408
46281W        W88292   0.059   0.084   2.228
46282W        W88293  17.579   0.764   8.802
46283W        W88294   7.149   1.804   9.802
46284W        W88295  25.309  17.584   8.102
46285W        W88296   4.479  23.061   1.658
46286W        W88297   1.709   8.064  15.332
46287W        W88298  16.019   2.314   0.978
46288W        W88299  11.199   7.514  15.802
46289W        W88300  11.449  14.594  15.582
46290W        W88301   8.459   4.584  15.622
46291W        W88302   5.999  21.841   2.552
46292W        W88303   5.899  24.671  15.602
46293W        W88304  14.559  15.574   4.062
46294W        W88305  19.239   6.604   1.908
46295W        W88306  13.519   2.394  15.752
46296W        W88307  17.809  12.114  15.352
46297W        W88308   7.829   8.134   1.298
46298W        W88309  22.339  10.254   0.148
46299W        W88310  15.019  22.771   8.252
46300W        W88311   8.649  15.494   3.872
46301W        W88312  15.299  10.674   3.532
46302W        W88313   5.429   4.474  10.262
46303W        W88314  18.839  24.901   3.172
46304W        W88315  12.159   9.754   3.972
46305W        W88316  15.399   8.954  15.462
46306W        W88317  16.889   4.234   8.262
46307W        W88318  15.919   1.754   9.742
46308W        W88319   5.809  21.174  10.892
46309W        W88320  21.659  18.754  10.002
46310W        W88321  10.329  17.154   9.442
46311W        W88322   2.929  15.604   7.492
46312W        W88323  10.679  10.964  14.822
46313W        W88324  22.149  22.831  10.602
46314W        W88325  13.259  14.504   4.392
46315W        W88326   9.759  18.744   3.502
46316W        W88327   6.399  21.931   8.222
46317W        W88328  17.539  19.654   9.002
46318W        W88329   4.699   0.404   9.862
46319W        W88330  15.589  10.794  15.062
46320W        W88331  14.939   3.704   3.892
46321W        W88332  22.319  21.811  11.382
46322W        W88333  19.319  23.131   2.158
46323W        W88334  17.139   3.764  10.072
46324W        W88335   0.509   2.334   9.522
46325W        W88336  23.709  10.294   1.518
46326W        W88337   0.179   4.764   2.468
46327W        W88338  13.809  16.974  15.112
46328W        W88339  20.339  18.764   2.378
46329W        W88340  14.149  16.844  10.152
46330W        W88341   5.059   6.194   8.572
46331W        W88342  25.119   9.314   3.232
46332W        W88343  13.439   5.684   4.312
46333W        W88344   8.789   4.994   2.652
46334W        W88345   0.319   3.374   7.722
46335W        W88346   3.899   4.684  15.052
46336W        W88347  25.229  12.444   8.392
46337W        W88348  10.099  15.874   8.342
46338W        W88349  25.539  10.024   9.452
46339W        W88350  15.809  15.534   8.082
46340W        W88351   6.199   8.584   9.072
46341W        W88352   6.949   1.374   9.482
46342W        W88353   1.149   5.014   7.412
46343W        W88354  21.869  11.374   9.472
46344W        W88355   0.639   1.004   0.118
46345W        W88356   0.219  14.064   3.342
46346W        W88357   9.809  10.744  14.402
46347W        W88358  18.829  13.994   3.832
46348W        W88359  19.759  19.224   7.452
46349W        W88360   4.819   5.824   3.432
46350W        W88361   2.529  16.054  11.772
46351W        W88362  25.109  13.584  11.602
46352W        W88363   2.459  18.794   3.672
46353W        W88364  17.059   4.094   8.812
46354W        W88365  16.619  17.754   9.332
46355W        W88366  22.379  17.074   0.618
46356W        W88367   8.509  21.214  10.662
46357W        W88368  11.059  19.034   0.558
46358W        W88369  14.759  14.294   4.622
46359W        W88370   9.899   5.944   2.852
46360W        W88371   9.359  25.531   3.252
46361W        W88372  10.749  11.564  15.012
46362W        W88373  19.129  21.811   1.558
46363W        W88374   1.629  17.464   1.128
46364W        W88375  25.589  10.054  11.902
46365W        W88376   9.469  24.721   2.018
46366W        W88377  21.719  17.814   9.712
46367W        W88378  25.329  11.474   0.958
46368W        W88379   6.339  17.114  10.812
46369W        W88380   5.339   9.414   1.738
46370W        W88381  14.609   4.664   3.852
46371W        W88382   9.769  23.211   3.202
46372W        W88383  11.449  22.421  10.632
46373W        W88384  15.509  24.581   2.912
46374W        W88385  18.019  13.224   0.668
46375W        W88386   0.189  15.384   8.582
46376W        W88387  13.359  10.704   0.138
46377W        W88388  17.409   3.004   2.068
46378W        W88389   9.599  22.431   2.048
46379W        W88390  15.139  19.994   1.778
46380W        W88391  11.299  19.084  10.562
46381W        W88392  18.309   1.984   0.858
46382W        W88393  24.309  12.154   1.908
46383W        W88394   6.229  13.364   8.132
46384W        W88395   0.989   5.544   7.872
46385W        W88396   0.199   3.614   8.122
46386W        W88397  14.319  24.581   3.902
46387W        W88398   6.869  23.311   8.562
46388W        W88399  17.269  24.471   8.442
46389W        W88400   1.659  12.634  15.472
46390W        W88401  17.149  14.684   3.002
46391W        W88402   5.789  21.094   3.022
46392W        W88403  24.429  21.931   2.248
46393W        W88404  20.639   9.054   0.678
46394W        W88405  24.929  14.554   9.372
46395W        W88406   4.449  18.604  10.412
46396W        W88407   6.979  25.311   3.522
46397W        W88408   3.139   0.794   1.688
46398W        W88409   3.259  23.541  15.762
46399W        W88410   7.049   7.464   3.082
46400W        W88411  15.569  19.094   3.482
46401W        W88412  16.389  20.274   2.038
46402W        W88413  15.989  12.984   2.038
46403W        W88414   1.209   7.544   0.038
46404W        W88415   2.349  18.434   9.632
46405W        W88416   1.409  10.644  10.072
46406W        W88417   8.109   1.604  10.382
46407W        W88418  15.319  22.811   2.348
46408W        W88419   4.289  13.534  15.432
46409W        W88420   1.249   4.944   1.458
46410W        W88421   0.769  17.034   2.552
46411W        W88422  18.969   0.924   8.672
46412W        W88423   3.739  20.424  12.012
46413W        W88424  18.399  22.641  11.582
46414W        W88425  20.399   7.534   3.952
46415W        W88426  17.979  24.561  10.272
46416W        W88427   3.579  24.771   7.272
46417W        W88428  19.659  11.684   9.652
46418W        W88429  24.169   2.204  15.222
46419W        W88430   3.119  15.904   2.622
46420W        W88431  24.829  15.444   1.098
46421W        W88432  14.089  10.224   3.122
46422W        W88433  10.859  15.234   4.812
46423W        W88434  21.809  22.721   3.052
46424W        W88435   3.729  13.924   9.282
46425W        W88436   0.229  21.441  11.692
46426W        W88437  16.439   4.234   2.632
46427W        W88438  14.009   4.794  15.632
46428W        W88439   5.619  10.924   0.848
46429W        W88440  20.399   8.784  10.152
46430W        W88441  23.829  14.814  11.002
46431W        W88442  21.669  12.714   0.408
46432W        W88443  12.929   4.094   9.892
46433W        W88444   1.379   8.944   0.838
46434W        W88445   1.379   1.644   9.622
46435W        W88446   4.529   1.394   8.332
46436W        W88447   4.109  13.754   8.292
46437W        W88448   9.559  23.331   0.648
46438W        W88449  10.379  15.844   1.298
46439W        W88450  24.699  24.691   9.132
46440W        W88451  15.299  16.724   2.542
46441W        W88452   1.059   5.224   3.452
46442W        W88453  20.059  17.534   2.962
46443W        W88454  19.889  22.941  11.832
46444W        W88455  20.269  20.604  10.422
46445W        W88456   7.059  17.794   8.242
46446W        W88457  21.609  19.984   1.788
46447W        W88458  14.669   7.464   0.798
46448W        W88459   5.469   6.774   3.332
46449W        W88460   6.969   1.334   2.338
46450W        W88461   3.619  11.814  10.322
46451W        W88462  11.069  24.091  10.982
46452W        W88463   0.479  10.924   2.712
46453W        W88464   2.589  13.314  10.172
46454W        W88465   2.229   0.084   1.798
46455W        W88466  19.309   0.334   0.478
46456W        W88467  20.299   8.404   7.752
46457W        W88468  15.299  19.234   7.832
46458W        W88469  22.079   4.394   1.408
46459W        W88470  19.119  17.514  11.242
46460W        W88471   9.399  13.094   2.188
46461W        W88472  22.269  18.554   9.362
46462W        W88473  24.119  11.124   1.668
46463W        W88474  24.839   0.004   0.588
46464W        W88475  24.229  12.724   8.592
46465W        W88476  20.879  23.891   2.268
46466W        W88477  11.529   0.744   8.662
46467W        W88478  19.069  19.904   2.672
46468W        W88479   9.019  22.301   3.672
46469W        W88480   8.459  11.794   0.158
46470W        W88481  10.739  12.044   9.952
46471W        W88482  24.289   7.024  10.942
46472W        W88483   5.039  12.644   9.022
46473W        W88484  24.539  13.524   2.058
46474W        W88485  24.179   4.104   7.672
46475W        W88486  23.709   7.324  10.262
46476W        W88487  23.509  10.284  15.142
46477W        W88488  20.509  14.404  12.352
46478W        W88489  16.319   3.514   8.662
46479W        W88490  14.519   9.544   3.272
46480W        W88491   0.329   4.964  11.832
46481W        W88492  17.029   2.454   3.252
46482W        W88493  19.719  23.761   9.852
46483W        W88494  12.379  18.254   9.332
46484W        W88495   6.429   6.834   3.202
46485W        W88496  15.469   0.604   2.782
46486W        W88497  11.729  13.574   3.382
46487W        W88498   9.959  19.294   2.942
46488W        W88499  22.319  22.151  12.122
46489W        W88500  23.169  18.954   9.822
46490W        W88501  24.779   1.484   0.838
46491W        W88502  22.459  24.941   4.002
46492W        W88503  25.579  18.644  11.312
46493W        W88504   8.009  19.714   9.772
46494W        W88505   3.329   4.134   9.842
46495W        W88506  20.869  25.051   1.128
46496W        W88507   6.959  10.864   9.172
46497W        W88508  22.169   9.084   1.308
46498W        W88509  19.459   0.624   9.532
46499W        W88510   8.609  16.364   2.158
46500W        W88511  23.929  24.741   9.762
46501W        W88512   7.809   0.944   2.278
46502W        W88513  13.489   0.044   3.562
46503W        W88514   2.329   8.324   1.328
46504W        W88515   2.009  12.294   2.942
46505W        W88516  25.449  12.794   0.168
46506W        W88517  13.659  17.774   2.772
46507W        W88518   6.399  25.581   3.742
46508W        W88519  17.429   5.584  15.672
46509W        W88520  23.589  21.274   9.902
46510W        W88521   7.439   4.804  14.072
46511W        W88522  20.289   8.864   2.952
46512W        W88523  12.559  15.884  10.562
46513W        W88524   2.579   8.124   9.562
46514W        W88525  25.239   5.014   3.232
46515W        W88526  20.919  19.284   3.492
46516W        W88527  10.669  10.904   2.782
46517W        W88528  24.229   9.104   3.442
46518W        W88529   4.919  18.324   2.208
46519W        W88530   7.349  16.484   8.232
46520W        W88531   6.749  20.744   9.932
46521W        W88532  18.579  23.431   1.798
46522W        W88533  17.819  18.184  11.392
46523W        W88534  22.239  16.334   8.832
46524W        W88535  10.709  16.464  15.562
46525W        W88536  19.719   1.924  10.122
46526W        W88537  13.219   0.034   0.628
46527W        W88538  15.749   2.024   8.872
46528W        W88539  17.349  16.974  10.072
46529W        W88540  10.629  25.391   9.092
46530W        W88541   5.699  22.361   8.602
46531W        W88542   7.439  14.164  14.302
46532W        W88543  22.149   9.484   9.802
46533W        W88544   7.159  17.084   0.878
46534W        W88545  16.859  15.204  11.942
46535W        W88546  15.399   1.584   9.552
46536W        W88547  17.029   6.044  11.352
46537W        W88548  10.849   5.344   7.632
46538W        W88549  22.969  11.254  11.022
46539W        W88550  13.149   0.374   4.352
46540W        W88551  19.609  19.594   0.838
46541W        W88552  13.969  19.584   8.432
46542W        W88553  25.279  24.661   1.258
46543W        W88554   8.859   1.104   0.888
46544W        W88555   8.499  15.474   9.502
46545W        W88556  10.039  24.801   3.652
46546W        W88557   8.509  23.671   2.128
46547W        W88558   1.799   5.074   8.632
46548W        W88559  12.719   3.604   8.492
46549W        W88560  11.719   1.784   8.502
46550W        W88561   8.039   2.894   8.492
46551W        W88562   6.599  19.914   2.428
46552W        W88563   0.239  17.344   1.648
46553W        W88564   4.459   0.484  11.192
46554W        W88565   6.829   4.264   9.422
46555W        W88566   4.699  12.464   7.052
46556W        W88567   3.799   5.394  15.802
46557W        W88568  15.059  17.594   2.592
46558W        W88569   0.729  23.521   2.498
46559W        W88570  10.829   3.794  10.402
46560W        W88571  16.629   7.394  10.402
46561W        W88572  14.609   7.504   4.132
46562W        W88573   6.609  16.674   8.922
46563W        W88574  14.209   3.464   8.692
46564W        W88575  21.389   6.834   2.398
46565W        W88576  18.729  14.394   7.902
46566W        W88577  22.589  23.601   1.458
46567W        W88578  10.769   4.814   3.552
46568W        W88579  13.709   5.934   1.138
46569W        W88580   6.859  18.564   4.032
46570W        W88581  17.669   6.004   0.148
46571W        W88582  20.779  12.854   0.908
46572W        W88583   3.349  19.504   2.992
46573W        W88584  24.899  17.514   1.698
46574W        W88585  22.449   7.544  11.422
46575W        W88586  15.309  22.951   9.412
46576W        W88587  22.879   4.944   2.902
46577W        W88588  22.309   9.184   0.228
46578W        W88589  15.739   8.214  15.102
46579W        W88590   6.679  10.394  11.462
46580W        W88591  10.499  18.584  15.162
46581W        W88592  17.349   7.754  15.292
46582W        W88593   7.149  16.144   1.518
46583W        W88594  12.839  19.384   0.368
46584W        W88595   1.419  14.674   0.978
46585W        W88596   5.089   6.174   9.112
46586W        W88597  18.779   7.554   9.602
46587W        W88598   7.489  19.574   1.138
46588W        W88599  15.729  20.484   9.422
46589W        W88600  12.619   0.784  15.782
46590W        W88601   2.849  10.104   1.558
46591W        W88602  23.109  17.444   9.912
46592W        W88603  21.249  22.421   2.922
46593W        W88604   5.379  17.054  10.742
46594W        W88605  16.729  16.344   3.492
46595W        W88606  21.949  15.404  11.102
46596W        W88607  19.849   9.054   8.652
46597W        W88608   3.519   4.654   7.562
46598W        W88609   5.879   6.404   0.218
46599W        W88610  13.299  25.171   8.662
46600W        W88611  20.679  22.081   0.768
46601W        W88612  11.299  13.394   1.648
46602W        W88613  15.039   2.984   0.268
46603W        W88614  22.189   5.924   2.972
46604W        W88615  15.309  18.414   2.872
46605W        W88616  20.469   6.154   0.648
46606W        W88617   3.009  24.551   7.202
46607W        W88618   9.209   9.184   2.662
46608W        W88619  21.349  17.744   8.892
46609W        W88620  15.409   7.504   1.268
46610W        W88621   8.129  23.661   1.798
46611W        W88622  23.069   3.884   2.602
46612W        W88623   3.339  16.994   0.878
46613W        W88624  14.089   3.854   0.578
46614W        W88625  12.129  24.091  11.722
46615W        W88626  20.769   8.384   9.412
46616W        W88627  11.409   1.864   9.632
46617W        W88628   6.619  17.414  11.642
46618W        W88629  11.589  16.524  15.422
46619W        W88630   1.919  25.481   0.278
46620W        W88631   0.469  15.824   0.778
46621W        W88632   1.199  16.794   8.812
46622W        W88633  11.769   4.694   0.588
46623W        W88634  18.989   3.534  15.182
46624W        W88635   9.429   3.064  15.822
46625W        W88636  23.549   6.004   1.158
46626W        W88637   4.949  11.364  10.022
46627W        W88638  22.839  25.421  11.512
46628W        W88639   8.579  14.254  10.442
46629W        W88640  19.239   4.594   0.548
46630W        W88641  18.709   0.194  11.432
46631W        W88642   1.679  12.474   1.128
46632W        W88643  23.629   9.194   9.292
46633W        W88644   5.199  18.084   9.262
46634W        W88645   9.929   3.884   8.802
46635W        W88646  19.069  23.451   1.828
46636W        W88647  23.019  16.404   1.818
46637W        W88648   6.579  19.964  15.322
46638W        W88649  20.259  10.224   3.332
46639W        W88650   8.429  11.464  14.892
46640W        W88651  11.839  12.004   4.302
46641W        W88652   3.149   9.914  11.392
46642W        W88653  20.069   6.544  10.092
46643W        W88654  13.309  20.704  10.422
46644W        W88655   0.021  12.354  11.112
46645W        W88656   3.729  10.134   7.262
46646W        W88657   9.539  24.711  15.482
46647W        W88658  15.049   0.464   8.812
46648W        W88659  23.839  11.194   1.248
46649W        W88660  24.519   5.664   7.582
46650W        W88661  13.159   5.484   8.912
46651W        W88662   4.479   9.874  11.122
46652W        W88663  20.619  16.464   9.732
46653W        W88664   1.999  18.844   2.752
46654W        W88665  16.549   2.684   8.692
46655W        W88666  21.409  19.454   1.918
46656W        W88667  15.499  15.054   9.572
46657W        W88668  24.939  19.224   8.802
46658W        W88669   6.699   7.864   9.532
46659W        W88670  10.239  22.511   1.478
46660W        W88671  10.639   3.424   4.472
46661W        W88672   8.939  22.661   4.182
46662W        W88673  14.529  16.744   8.952
46663W        W88674  22.089   0.804   0.878
46664W        W88675  17.069  13.814   1.818
46665W        W88676   9.559  20.114   3.752
46666W        W88677  22.139  20.874   2.722
46667W        W88678  22.449  20.344   0.818
46668W        W88679  14.489  21.114  10.432
46669W        W88680  17.559  11.904   1.828
46670W        W88681   1.019   3.604   8.932
46671W        W88682   5.819   7.394   2.712
46672W        W88683   6.189   8.244   9.892
46673W        W88684  18.319  14.974  10.772
46674W        W88685  14.579   9.914   0.448
46675W        W88686  14.469  18.134   9.602
46676W        W88687  22.299   9.894  10.642
46677W        W88688   3.629  17.084  10.752
46678W        W88689   8.869  16.104   8.022
46679W        W88690   3.979  25.011  10.502
46680W        W88691  11.489  25.221   0.518
46681W        W88692  15.529   4.934   9.812
46682W        W88693   8.079  17.724   4.392
46683W        W88694   9.419  10.614   2.992
46684W        W88695  24.819  14.294   3.172
46685W        W88696  13.359   8.454   2.438
46686W        W88697   8.769  12.084   9.652
46687W        W88698  11.649  21.224  10.792
46688W        W88699   7.219   3.254   8.882
46689W        W88700   5.929  11.694   8.352
46690W        W88701   3.869   5.474  11.932
46691W        W88702   4.679   5.464   0.058
46692W        W88703  25.399  20.474   8.732
46693W        W88704   2.119   9.764   7.222
46694W        W88705  16.559  21.571   7.102
46695W        W88706  18.729  14.754   1.098
46696W        W88707   6.249  21.294  10.542
46697W        W88708   3.059  13.084  10.432
46698W        W88709  15.649  22.421   3.212
46699W        W88710  16.539  24.751   0.818
46700W        W88711   6.309   2.434  15.792
46701W        W88712  24.969   2.814   8.132
46702W        W88713   8.149  12.214   0.268
46703W        W88714   8.459  21.801   2.842
46704W        W88715   5.589  21.214   1.188
46705W        W88716  19.549   3.834   2.672
46706W        W88717  24.439  21.381   0.528
46707W        W88718  11.759  14.454  11.022
46708W        W88719  19.469   8.464   3.842
46709W        W88720   0.709  23.821  12.142
46710W        W88721  24.959  16.164  15.762
46711W        W88722   3.579  12.014   4.132
46712W        W88723  10.639  23.371   2.882
46713W        W88724   3.099   9.214  10.442
46714W        W88725   9.509  13.104   9.372
46715W        W88726  24.019   6.764   3.012
46716W        W88727   0.229   6.974   9.452
46717W        W88728   7.949  16.264  10.692
46718W        W88729   1.249  23.281   1.058
46719W        W88730  14.669   5.304  10.082
46720W        W88731   3.359  14.944   0.968
46721W        W88732  24.389  25.221   1.508
46722W        W88733   1.559  23.881   0.278
46723W        W88734   5.999  19.574  15.582
46724W        W88735  14.409  18.764   9.632
46725W        W88736  19.459  15.644   9.152
46726W        W88737  23.989  16.004  10.052
46727W        W88738  17.419  12.674  10.852
46728W        W88739   0.689   8.494   7.922
46729W        W88740  19.659  16.064   0.688
46730W        W88741  23.999  18.644   8.962
46731W        W88742  22.349   0.224   1.788
46732W        W88743   9.409  22.291   8.422
46733W        W88744  15.899  10.314   1.658
46734W        W88745  11.139   6.254   0.018
46735W        W88746   1.269  18.424   2.448
46736W        W88747  11.789   3.634   4.212
46737W        W88748   0.189  13.164   8.732
46738W        W88749  20.709   3.744   9.892
46739W        W88750  10.599  12.444   9.662
46740W        W88751  17.219  10.254   2.468
46741W        W88752   2.639  16.514  10.862
46742W        W88753  23.159  17.184   9.482
46743W        W88754  14.679   7.224   9.492
46744W        W88755   4.419   5.884  15.652
46745W        W88756  15.459   0.504  11.182
46746W        W88757  20.339  23.001   4.392
46747W        W88758  25.219  17.484  10.452
46748W        W88759  15.469  11.714   1.908
46749W        W88760   8.789   0.244   1.618
46750W        W88761  13.039   3.994  14.322
46751W        W88762  19.599  24.731  11.332
46752W        W88763   6.389  22.051   9.302
46753W        W88764   3.129   7.054  11.782
46754W        W88765  24.089  11.514   2.418
46755W        W88766  13.779   0.954   0.568
46756W        W88767  23.939  22.701   8.882
46757W        W88768   3.179  18.934   3.052
46758W        W88769  24.419   4.564   2.248
46759W        W88770   0.259  20.014   8.022
46760W        W88771   2.499  16.074   1.188
46761W        W88772  24.799   3.034   1.158
46762W        W88773  13.139  24.871   4.762
46763W        W88774  19.509  22.201   9.122
46764W        W88775   2.339   7.474  10.572
46765W        W88776  15.759   2.954   8.652
46766W        W88777  22.909  10.504   9.582
46767W        W88778   0.359   7.154  10.672
46768W        W88779  21.859  22.061   3.762
46769W        W88780  20.359   7.384  11.342
46770W        W88781  17.969   6.244   8.442
46771W        W88782   5.269  23.331   2.922
46772W        W88783  22.199  19.894   7.002
46773W        W88784  25.009   8.784   1.348
46774W        W88785  17.599  15.394   2.288
46775W        W88786   5.339   0.414  10.762
46776W        W88787   7.839   4.974  10.372
46777W        W88788   0.859   3.044  10.172
46778W        W88789  12.869   3.064  14.922
46779W        W88790  11.299  13.764   2.018
46780W        W88791  18.429  17.774  10.692
46781W        W88792   4.509   6.384   7.782
46782W        W88793  25.549  13.784   0.608
46783W        W88794   5.329  23.741   4.102
46784W        W88795  17.609   2.484   9.962
46785W        W88796   9.589  13.874  14.342
46786W        W88797  15.339   0.364  10.132
46787W        W88798   4.559   1.594   7.442
46788W        W88799   8.389   7.074   4.232
46789W        W88800  23.249   6.154   0.098
46790W        W88801   3.459  20.464   0.978
46791W        W88802   2.019  19.664   7.982
46792W        W88803  19.639  10.474   0.928
46793W        W88804  22.549   0.324   7.762
46794W        W88805   6.679   5.594   0.698
46795W        W88806  17.809   7.494   2.388
46796W        W88807   5.509  22.351   1.958
46797W        W88808   0.589   4.564   8.022
46798W        W88809   1.569   2.884   9.432
46799W        W88810   7.769  11.404   2.722
46800W        W88811   5.819   7.924   9.842
46801W        W88812  20.559  19.314   9.622
46802W        W88813   2.199  13.874   1.158
46803W        W88814   4.719  20.364  10.842
46804W        W88815  18.939   5.004   4.582
46805W        W88816  22.439   2.894  10.582
46806W        W88817  17.419  23.391  10.572
46807W        W88818  23.069   0.804   2.512
46808W        W88819   7.349   6.074   1.628
46809W        W88820  12.389  24.131  11.052
46810W        W88821   4.709  13.904  11.352
46811W        W88822   8.959   3.004  14.952
46812W        W88823  12.219   0.014   1.578
46813W        W88824  24.079  20.984   7.982
46814W        W88825   4.819  24.591   4.012
46815W        W88826  10.149   4.274   2.572
46816W        W88827  15.579  22.071   2.572
46817W        W88828  17.089  11.654   0.988
46818W        W88829   9.059  12.744   9.582
46819W        W88830  20.309  19.514  11.482
46820W        W88831  13.579   2.334   0.408
46821W        W88832  19.549  10.834   3.692
46822W        W88833   0.759  23.971   2.902
46823W        W88834  12.399   3.504   0.378
46824W        W88835  15.399   3.054   3.192
46825W        W88836  20.039  22.121   4.242
46826W        W88837  14.359   0.844   8.272
46827W        W88838   7.049   9.644   8.562
46828W        W88839  18.909  16.744   8.662
46829W        W88840  20.009  13.124   9.842
46830W        W88841   3.669  15.154   2.278
46831W        W88842   9.849  10.404   2.692
46832W        W88843   3.889   5.524   2.542
46833W        W88844   9.289   9.284   0.858
46834W        W88845   8.209   1.694   1.338
46835W        W88846  23.219  23.031  11.582
46836W        W88847   9.599  22.711   9.072
46837W        W88848  19.609  10.154   8.812
46838W        W88849  13.049  21.581   3.152
46839W        W88850  24.039   6.264   8.262
46840W        W88851  15.899  23.911   9.932
46841W        W88852   4.759  25.121   1.868
46842W        W88853  13.569   8.384   3.412
46843W        W88854  17.989  17.454   9.582
46844W        W88855  21.879   7.394   0.538
46845W        W88856   4.499   8.214  11.662
46846W        W88857   5.549  10.434   1.138
46847W        W88858  11.649  24.371   0.008
46848W        W88859   2.109  22.791   0.818
46849W        W88860  25.579   3.624  10.062
46850W        W88861   6.399   5.074   9.122
46851W        W88862   1.839   7.804   2.842
46852W        W88863   1.199   4.824   2.892
46853W        W88864  21.259  12.294  11.132
46854W        W88865   1.999  17.354   0.728
46855W        W88866   7.219  25.121  15.222
46856W        W88867   4.419   8.554  10.172
46857W        W88868  13.079  23.061  10.532
46858W        W88869  13.949  10.874   3.572
46859W        W88870  17.799   9.014  10.372
46860W        W88871  23.439   1.864  12.422
46861W        W88872   4.919   9.674   0.568
46862W        W88873  11.769  20.064   1.278
46863W        W88874   0.099   6.674   1.888
46864W        W88875  15.389   1.014   1.858
46865W        W88876  10.409   1.214   8.802
46866W        W88877  24.039  14.184   1.588
46867W        W88878  19.509  21.314   2.328
46868W        W88879  12.329  19.574   5.252
46869W        W88880  24.029  23.511   9.092
46870W        W88881  18.259  19.554   1.028
46871W        W88882   8.219   8.414   1.398
46872W        W88883   2.679   5.754   8.052
46873W        W88884   3.969  24.181   9.242
46874W        W88885   8.179   3.224   9.772
46875W        W88886  11.469  17.754   0.158
46876W        W88887  13.649  23.511  10.772
46877W        W88888  20.259   2.494   3.022
46878W        W88889  17.629  22.511   1.048
46879W        W88890   9.399  11.424   0.818
46880W        W88891  18.149  18.654   0.718
46881W        W88892  16.789  15.114   0.968
46882W        W88893   5.409  19.864   9.752
46883W        W88894  20.729   0.374   8.312
46884W        W88895  24.619   6.634   9.542
46885W        W88896  23.619  19.334   9.892
46886W        W88897  10.439  17.514  15.852
46887W        W88898   6.369  17.694   4.062
46888W        W88899   7.309  16.414   1.878
46889W        W88900  20.269   5.234   7.582
46890W        W88901   5.609   4.624   0.258
46891W        W88902  13.219   9.654   0.858
46892W        W88903   1.549  14.974   8.432
46893W        W88904   2.669  18.094   8.282
46894W        W88905  18.199  22.901   4.332
46895W        W88906  24.929   8.364   0.488
46896W        W88907  14.539  23.431   8.862
46897W        W88908  13.949  19.044   9.572
46898W        W88909   5.329   9.764   0.948
46899W        W88910  22.139  12.574  10.702
46900W        W88911   7.679   0.194   1.918
46901W        W88912  16.989  15.274  15.622
46902W        W88913  14.749   0.684   0.608
46903W        W88914   0.059   0.464   8.962
46904W        W88915  25.039   1.174  10.532
46905W        W88916   6.559  20.904   0.318
46906W        W88917  22.269  18.974   9.602
46907W        W88918  23.039   8.154   8.362
46908W        W88919  15.429  18.114   9.822
46909W        W88920   0.749   7.284   2.458
46910W        W88921   3.969  20.544   0.098
46911W        W88922   3.059   8.224   9.382
46912W        W88923  13.829  12.514   2.792
46913W        W88924  14.429  23.781   9.712
46914W        W88925   0.349  24.511   9.822
46915W        W88926  22.849  13.754   9.932
46916W        W88927  12.789   6.214  11.142
46917W        W88928   9.609  15.884  10.382
46918W        W88929   2.439  11.424   7.382
46919W        W88930  12.249  20.464   0.528
46920W        W88931  16.189  23.011  15.402
46921W        W88932  12.629   7.094  14.632
46922W        W88933   7.029  10.744   2.378
46923W        W88934  18.529  12.084   1.528
46924W        W88935  14.119   3.484   9.382
46925W        W88936  23.669  16.004   3.002
46926W        W88937   0.859   6.234  10.432
46927W        W88938   4.559  22.851  15.042
46928W        W88939   5.599   3.784  11.412
46929W        W88940  21.259  17.704  15.362
46930W        W88941  21.669  21.711   7.202
46931W        W88942  24.079   5.724   9.462
46932W        W88943   4.939  19.984   8.312
46933W        W88944  10.889  10.604   3.402
46934W        W88945  14.949   6.894   9.982
46935W        W88946  13.349   9.134   8.812
46936W        W88947   4.589   0.064  10.182
46937W        W88948   9.709   1.654   9.032
46938W        W88949  14.579   9.664   4.782
46939W        W88950   7.309   4.664  11.112
46940W        W88951  21.289  14.384   9.002
46941W        W88952  24.739  12.204  11.372
46942W        W88953  12.329   3.004   0.538
46943W        W88954  10.579   0.934   3.362
46944W        W88955  18.459  23.271   9.352
46945W        W88956  13.659   2.114   2.338
46946W        W88957  25.229   2.784  10.282
46947W        W88958  12.799  17.894   1.078
46948W        W88959  21.129  13.354   1.608
46949W        W88960   3.779   7.024  11.222
46950W        W88961   3.889  23.591   2.088
46951W        W88962   0.209   6.464   0.248
46952W        W88963  21.469  12.914   3.002
46953W        W88964  17.119  21.154   9.802
46954W        W88965  15.259  13.464   8.502
46955W        W88966   8.029   0.954   8.662
46956W        W88967  22.829   9.024  10.412
46957W        W88968  12.749   2.994   7.822
46958W        W88969   0.199   9.804   7.272
46959W        W88970  21.349   3.964   8.742
46960W        W88971  15.349  21.264  15.222
46961W        W88972  22.409   6.824   2.832
46962W        W88973  18.139   4.774   9.842
46963W        W88974  17.489  22.941  11.992
46964W        W88975   0.739  13.184   2.468
46965W        W88976  18.659   2.344   1.738
46966W        W88977  13.149  20.454   3.912
46967W        W88978  10.289   8.674   2.572
46968W        W88979  22.349   0.984   2.248
46969W        W88980   2.649   5.314  10.392
46970W        W88981  25.069  19.294   1.438
46971W        W88982   3.209  10.424   8.622
46972W        W88983  18.489  25.281   1.718
46973W        W88984   5.499   0.944   1.728
46974W        W88985   6.899   3.904   8.492
46975W        W88986   9.779  15.324   1.268
46976W        W88987   3.989  13.514  10.952
46977W        W88988  14.549  21.124  11.362
46978W        W88989  24.829  25.431   1.098
46979W        W88990   5.419   0.374   1.728
46980W        W88991   7.899   8.244  15.552
46981W        W88992  22.229   4.294   2.852
46982W        W88993   2.679  12.854   0.048
46983W        W88994  14.939  17.274   1.738
46984W        W88995   4.079   3.754  10.942
46985W        W88996  13.339   1.794   3.752
46986W        W88997   5.529  12.084   4.032
46987W        W88998  14.549  25.491  10.622
46988W        W88999   9.939   5.344   0.838
46989W        W89000  17.909  12.744   0.878
46990W        W89001  22.149   1.994   2.932
46991W        W89002  10.449   7.244   2.428
46992W        W89003  13.389  16.714   0.808
46993W        W89004  20.949  13.614   3.882
46994W        W89005   6.909  14.594  10.002
46995W        W89006  21.359   1.204   7.682
46996W        W89007  14.829   5.264   3.612
46997W        W89008   1.639  15.384   9.572
46998W        W89009  25.419  20.474  12.332
46999W        W89010  19.609  20.674   2.832
47000W        W89011  15.589  25.381   0.648
47001W        W89012  12.399   7.994   1.618
47002W        W89013   5.579   3.974   1.128
47003W        W89014   3.879   4.104  15.822
47004W        W89015   4.279  18.004   2.348
47005W        W89016   4.489  18.724  11.182
47006W        W89017  19.189  13.584  11.402
47007W        W89018  12.519  10.014  13.782
47008W        W89019   2.409   5.734   1.048
47009W        W89020  17.599   7.784   1.458
47010W        W89021   2.189   0.314   9.532
47011W        W89022   4.859   3.594   0.708
47012W        W89023   8.619  18.934  10.032
47013W        W89024  19.829  10.484   3.522
47014W        W89025  23.809  25.581   0.898
47015W        W89026  14.819  24.661  15.672
47016W        W89027   9.029  13.524   2.802
47017W        W89028  12.329  23.681   0.078
47018W        W89029   5.669  23.861  10.952
47019W        W89030   9.389   5.524   1.518
47020W        W89031  18.809   3.154   0.818
47021W        W89032  19.309  11.334  10.482
47022W        W89033  24.769  19.714   4.262
47023W        W89034   6.679  24.861   1.168
47024W        W89035  23.309   7.414   3.952
47025W        W89036   9.259  14.324   3.212
47026W        W89037  23.979  16.024   8.892
47027W        W89038  17.849  15.734   0.028
47028W        W89039   8.689   9.734   1.618
47029W        W89040   8.389   9.384  10.322
47030W        W89041  24.949   2.124   9.372
47031W        W89042  16.279  14.934   8.902
47032W        W89043   0.869  11.234   8.522
47033W        W89044  13.099   9.334   9.402
47034W        W89045   4.319   4.774   9.602
47035W        W89046   5.229  14.334   2.188
47036W        W89047  19.999   7.554   2.622
47037W        W89048   6.429  21.761  10.562
47038W        W89049  11.869   7.034   9.042
47039W        W89050  19.839  21.981  10.102
47040W        W89051  20.069  15.254  11.342
47041W        W89052   6.889   6.694   8.242
47042W        W89053  20.579  18.394   2.038
47043W        W89054   4.149   3.474  15.232
47044W        W89055  21.169   0.644   8.212
47045W        W89056  15.479  10.384   9.122
47046W        W89057   0.209   6.694   9.002
47047W        W89058  11.949  11.314   2.792
47048W        W89059   9.059  10.334   8.632
47049W        W89060   3.239  15.884   3.752
47050W        W89061   6.639  10.134   8.622
47051W        W89062  24.999   6.494   0.678
47052W        W89063  18.989  17.614   1.358
47053W        W89064   8.019  15.694   9.452
47054W        W89065  16.369   5.374   9.922
47055W        W89066  12.299   2.694  11.072
47056W        W89067  12.289   0.144   2.702
47057W        W89068  18.799  25.441   7.772
47058W        W89069   1.299  19.324   0.598
47059W        W89070  25.079  13.974  11.232
47060W        W89071  22.239   4.794   0.258
47061W        W89072   4.949  14.154   3.512
47062W        W89073  25.089  18.714   1.068
47063W        W89074  16.589   4.994   1.588
47064W        W89075   1.299   3.954   9.602
47065W        W89076   4.619   4.404   7.162
47066W        W89077  20.869   0.884   2.328
47067W        W89078  13.129  16.494   1.448
47068W        W89079  15.009  18.724  14.842
47069W        W89080   8.079  23.351   4.102
47070W        W89081   7.159   5.744   0.608
47071W        W89082   5.709   1.744  15.372
47072W        W89083  18.439   1.794   0.028
47073W        W89084   0.239   1.444   2.218
47074W        W89085  14.229   8.024  10.232
47075W        W89086  23.659  15.924   3.492
47076W        W89087   1.669  18.134   8.732
47077W        W89088   7.439  12.624  14.792
47078W        W89089  15.029  24.271   0.148
47079W        W89090  24.729  10.674   3.362
47080W        W89091   4.629   0.664   0.368
47081W        W89092   0.869  22.271   0.828
47082W        W89093   0.259  18.144  11.362
47083W        W89094  18.139  23.591  15.532
47084W        W89095   6.809  20.144  10.452
47085W        W89096  14.129  14.654   1.118
47086W        W89097  19.799  18.284   0.098
47087W        W89098  22.919   8.264  15.422
47088W        W89099  22.699  19.304   9.582
47089W        W89100  20.859   4.784   2.682
47090W        W89101   2.669  17.864   8.772
47091W        W89102  10.499   8.404   3.882
47092W        W89103  17.169  23.931   9.652
47093W        W89104  21.529  15.974   9.712
47094W        W89105   3.949   0.074   9.102
47095W        W89106  24.209  24.741  10.262
47096W        W89107  24.349  22.771   8.602
47097W        W89108   9.029   7.524   3.862
47098W        W89109   6.389   0.284   8.212
47099W        W89110  11.179  19.304   8.882
47100W        W89111   0.739  15.024   2.832
47101W        W89112  24.449   7.184   3.102
47102W        W89113   6.009  10.824   8.432
47103W        W89114  14.129  25.031   3.332
47104W        W89115  19.829   5.594   8.422
47105W        W89116  12.639   0.864   0.638
47106W        W89117  18.009   3.734  10.392
47107W        W89118  21.629   5.124   2.562
47108W        W89119   8.639  10.244   1.778
47109W        W89120   5.779   0.644   2.038
47110W        W89121  15.219  13.794  14.882
47111W        W89122   8.129  11.734   3.232
47112W        W89123   0.529   1.504   8.432
47113W        W89124   5.169   0.404   9.102
47114W        W89125  12.089  11.664   5.162
47115W        W89126  20.579   2.314   7.312
47116W        W89127   3.729   6.474   0.848
47117W        W89128  25.309  15.234   1.168
47118W        W89129  17.639  21.334   3.762
47119W        W89130  22.749  18.764   9.712
47120W        W89131  23.949  18.434  12.682
47121W        W89132  12.209   5.514  15.522
47122W        W89133  25.109  22.621   0.238
47123W        W89134  20.719  11.984   1.068
47124W        W89135   0.929   9.544   0.198
47125W        W89136  21.959  15.734  11.522
47126W        W89137   8.599   8.294   0.928
47127W        W89138   0.529   7.814   1.298
47128W        W89139  18.369  17.604   0.418
47129W        W89140  22.459   2.504  11.622
47130W        W89141  20.809   5.774   9.832
47131W        W89142   5.939  22.361   8.032
47132W        W89143  19.639   4.734   8.312
47133W        W89144  22.729  23.411   9.412
47134W        W89145  19.619  20.174  11.402
47135W        W89146   9.479   1.114   2.328
47136W        W89147  16.319  14.354   1.428
47137W        W89148   6.199   3.984   7.602
47138W        W89149   5.899  21.521   1.458
47139W        W89150   1.959   5.894   9.602
47140W        W89151  24.479  18.024   3.882
47141W        W89152   3.899   6.364  10.732
47142W        W89153  24.149  18.944   1.958
47143W        W89154   3.289  21.621   3.992
47144W        W89155  10.779   5.744   8.992
47145W        W89156  25.109  22.961  11.232
47146W        W89157  15.279  10.924   1.968
47147W        W89158  18.909  16.214   7.422
47148W        W89159   1.199  21.721   2.832
47149W        W89160  17.029  20.354  10.282
47150W        W89161  12.839  10.074   4.332
47151W        W89162   8.909  23.021  11.052
47152W        W89163  22.259  24.181   9.362
47153W        W89164  11.079  13.794   2.542
47154W        W89165  10.829   0.254   8.852
47155W        W89166  10.569  21.881   3.412
47156W        W89167  14.119   3.414   8.212
47157W        W89168  21.369   6.314  10.512
47158W        W89169  25.199   1.914  10.362
47159W        W89170   3.859   9.914   0.158
47160W        W89171  25.469  13.344   1.398
47161W        W89172   5.649  19.824  10.172
47162W        W89173   6.859   0.864   7.892
47163W        W89174  18.939  10.964   2.882
47164W        W89175  17.679   8.984   9.932
47165W        W89176  24.519   8.584   1.158
47166W        W89177   7.339  16.704   0.648
47167W        W89178   3.689  16.844   1.318
47168W        W89179  10.509  17.514   1.438
47169W        W89180   3.089  11.754   3.522
47170W        W89181  15.039   3.694  10.312
47171W        W89182  19.109   3.544   8.892
47172W        W89183  13.679   0.654   9.512
47173W        W89184  24.609   8.334  10.932
47174W        W89185  10.949  13.114   9.712
47175W        W89186  23.149  13.284   1.208
47176W        W89187   4.389  23.321   9.582
47177W        W89188   8.939  18.434  15.562
47178W        W89189  11.329   0.814   2.208
47179W        W89190  22.859   3.034   1.148
47180W        W89191  12.269   5.974   1.218
47181W        W89192  25.369  12.204   3.182
47182W        W89193   1.839   7.224   0.558
47183W        W89194   7.339   9.494   8.942
47184W        W89195   9.389   7.724   0.878
47185W        W89196   5.589   6.614   9.852
47186W        W89197  10.519   0.644   8.772
47187W        W89198  24.439   1.764   2.822
47188W        W89199   8.279  18.284   0.388
47189W        W89200  22.449   5.814   1.848
47190W        W89201  21.889   4.504   9.112
47191W        W89202   2.799  24.481  10.462
47192W        W89203   3.339  24.471   8.562
47193W        W89204  25.579  14.824   8.352
47194W        W89205  25.259  17.124   8.922
47195W        W89206  11.999  16.474   4.612
47196W        W89207  11.759  20.294   9.822
47197W        W89208  13.989  11.464   3.082
47198W        W89209   4.219   7.474   1.328
47199W        W89210   3.079   0.284   3.302
47200W        W89211  17.189   2.844  10.042
47201W        W89212   5.819   7.324   9.132
47202W        W89213  18.949   6.204  11.012
47203W        W89214   7.369  18.434   1.878
47204W        W89215  24.719  16.474   9.902
47205W        W89216   4.409  16.294  15.822
47206W        W89217  17.109   4.504   3.382
47207W        W89218  20.019   0.704   0.308
47208W        W89219  10.479   0.624  15.412
47209W        W89220  17.129  20.934   0.358
47210W        W89221  14.819  13.134  14.502
47211W        W89222   6.319   5.704   9.732
47212W        W89223  18.039   2.664   3.032
47213W        W89224  13.009   1.174  14.302
47214W        W89225  12.199  19.784   2.742
47215W        W89226  22.569   2.574   9.812
47216W        W89227  20.629  23.461  12.372
47217W        W89228  16.689   7.124  15.732
47218W        W89229  19.039  24.601   9.832
47219W        W89230  10.659   6.474  10.332
47220W        W89231  12.419  16.604   0.498
47221W        W89232  10.119  15.364   3.002
47222W        W89233   3.689  20.824   1.838
47223W        W89234   3.019  25.581   1.488
47224W        W89235  13.009   9.794   1.998
47225W        W89236  15.859  24.401   9.262
47226W        W89237  22.009   3.934   7.772
47227W        W89238   8.979  13.574   0.798
47228W        W89239   4.289  23.071   0.848
47229W        W89240  22.939  17.684   9.452
47230W        W89241  20.969   3.724  12.142
47231W        W89242  14.269  23.981  10.302
47232W        W89243   0.869  12.794  10.702
47233W        W89244  11.359  20.354   0.338
47234W        W89245  11.879  11.314  10.202
47235W        W89246  18.349   6.134   2.108
47236W        W89247  12.559  15.784   1.838
47237W        W89248  19.689   8.434   0.608
47238W        W89249   1.629  18.034  15.562
47239W        W89250   1.099   0.664   0.938
47240W        W89251  23.449  11.764   9.762
47241W        W89252  12.459   7.354   0.518
47242W        W89253   4.689   8.164   7.152
47243W        W89254  18.189   8.604   0.968
47244W        W89255  14.879  15.954   2.398
47245W        W89256   8.499  21.991   0.138
47246W        W89257  14.289   7.894   3.282
47247W        W89258   4.649   5.454  10.962
47248W        W89259  15.409  24.131   0.958
47249W        W89260  17.379  20.874   2.308
47250W        W89261  19.199  19.054   0.078
47251W        W89262   1.699  15.564   1.318
47252W        W89263   6.539  15.184   1.668
47253W        W89264   4.799  15.734   9.092
47254W        W89265  14.759  21.971  15.192
47255W        W89266  20.179  11.844   2.862
47256W        W89267  10.179  19.764   1.808
47257W        W89268   7.809  20.684  10.362
47258W        W89269  17.509  24.791   7.732
47259W        W89270  24.339  23.891   2.018
47260W        W89271   5.209  14.784  10.952
47261W        W89272  16.499  17.324   2.208
47262W        W89273  20.879  23.981   9.392
47263W        W89274   6.339  16.954   1.158
47264W        W89275  10.779   5.354   9.312
47265W        W89276  16.999  14.894   1.348
47266W        W89277   6.119   1.344   2.832
47267W        W89278  18.789  21.761   1.958
47268W        W89279   7.009  21.204   4.132
47269W        W89280   3.699  22.591   8.492
47270W        W89281   0.519  14.374   0.758
47271W        W89282  13.129  24.621   2.008
47272W        W89283  21.299  24.841   2.762
47273W        W89284  15.799   1.734   4.062
47274W        W89285   4.669   9.984  10.512
47275W        W89286  17.559  13.894   1.868
47276W        W89287   9.979  13.494   1.578
47277W        W89288   7.789  14.974   0.788
47278W        W89289   1.089   8.534   9.992
47279W        W89290  10.979  18.864  14.932
47280W        W89291   6.539   3.544  10.122
47281W        W89292   2.839   0.264  10.032
47282W        W89293  11.229  10.844   9.802
47283W        W89294  19.119  16.284   2.912
47284W        W89295   5.489   7.674   3.462
47285W        W89296  18.239   2.924   0.858
47286W        W89297  16.099   9.454  10.882
47287W        W89298  14.509  17.264  10.452
47288W        W89299   8.429  21.641  10.872
47289W        W89300  10.639   8.384   9.012
47290W        W89301  18.569   7.074   9.392
47291W        W89302  23.109  15.284  12.182
47292W        W89303  13.819   2.764  15.642
47293W        W89304   4.269  23.861   3.982
47294W        W89305   9.389   1.364  15.582
47295W        W89306  15.639  23.511   9.692
47296W        W89307  14.399   1.884   2.622
47297W        W89308   2.059   4.904   7.672
47298W        W89309  13.429   4.024  10.022
47299W        W89310  19.069   6.914  11.602
47300W        W89311  22.379  24.381  10.032
47301W        W89312   4.919  21.641   9.422
47302W        W89313   9.279   6.314   8.222
47303W        W89314  18.379  16.474   3.182
47304W        W89315  14.139  17.934  15.652
47305W        W89316  19.699   5.304   0.688
47306W        W89317  24.299   0.954   1.758
47307W        W89318   9.849  17.794   4.902
47308W        W89319  14.239  25.261  11.042
47309W        W89320   7.799   4.784   8.152
47310W        W89321  16.869  22.871   9.732
47311W        W89322  15.879  15.994   9.672
47312W        W89323  15.049  17.144  15.512
47313W        W89324   7.979   3.314   3.402
47314W        W89325  19.289   6.854   8.262
47315W        W89326   1.169  23.601   1.588
47316W        W89327  21.539   1.234  10.832
47317W        W89328   8.179  22.111  10.672
47318W        W89329   4.969   7.034   7.352
47319W        W89330  12.669  22.561  11.492
47320W        W89331  20.269  20.344   3.282
47321W        W89332   8.099  25.501   8.612
47322W        W89333  18.599  14.484  10.752
47323W        W89334   9.399  14.134   3.712
47324W        W89335  14.529   8.044   0.748
47325W        W89336  22.259  14.044   1.838
47326W        W89337   1.939  12.624   9.042
47327W        W89338  15.439  10.844  10.102
47328W        W89339  10.169   0.024   1.678
47329W        W89340   0.339   5.534   7.352
47330W        W89341  20.869   5.984   8.442
47331W        W89342   1.209  10.984  15.012
47332W        W89343  16.519  13.914  15.262
47333W        W89344   6.189  16.234   8.092
47334W        W89345   4.769  20.664   0.718
47335W        W89346   1.309  20.214   9.552
47336W        W89347   7.449   3.834   3.512
47337W        W89348  15.029  23.811  10.602
47338W        W89349  24.789  13.614  10.922
47339W        W89350  19.779   5.784  10.862
47340W        W89351   5.239  13.624   7.382
47341W        W89352  22.739   2.554   1.828
47342W        W89353  19.669  22.481   7.902
47343W        W89354  13.049  13.904   4.932
47344W        W89355  14.619   0.694  10.002
47345W        W89356   1.789   2.494   9.232
47346W        W89357  24.099   8.114   1.008
47347W        W89358  14.379  15.444  15.472
47348W        W89359   8.209  17.254   4.232
47349W        W89360  15.499  23.751   4.452
47350W        W89361  10.219   4.414  14.962
47351W        W89362   5.009  21.981  15.772
47352W        W89363  20.679  25.281  12.022
47353W        W89364  21.519  16.614   1.078
47354W        W89365  12.729  24.411   8.542
47355W        W89366  17.469  14.274  14.702
47356W        W89367   0.729   0.274  11.932
47357W        W89368  13.789   5.374  10.532
47358W        W89369  20.039   2.334   2.038
47359W        W89370   3.709  25.301   2.942
47360W        W89371   5.419  15.644   8.072
47361W        W89372   9.109   3.954   9.122
47362W        W89373  24.429  18.804   9.192
47363W        W89374  12.829  10.994  15.672
47364W        W89375   8.169  15.164   9.102
47365W        W89376  10.379  24.261   0.478
47366W        W89377   1.999  11.914  10.732
47367W        W89378   5.659  14.334   1.878
47368W        W89379  17.199  13.494   8.672
47369W        W89380   2.159  14.754   7.732
47370W        W89381   7.739   6.294   1.068
47371W        W89382  23.699   9.424   0.628
47372W        W89383  14.999   6.564   2.248
47373W        W89384  24.669  20.684   9.272
47374W        W89385  16.189   8.404   2.168
47375W        W89386   1.919   2.034   1.808
47376W        W89387   3.459   2.224   7.472
47377W        W89388  24.459  24.291   9.322
47378W        W89389   9.629   3.914   2.522
47379W        W89390  16.939   8.534   2.458
47380W        W89391   1.879  25.011  10.552
47381W        W89392  11.779  14.904   4.302
47382W        W89393   6.389  24.991   8.212
47383W        W89394   3.439  14.144   9.692
47384W        W89395  22.109  21.711   2.488
47385W        W89396  13.979   0.164   8.802
47386W        W89397  14.059   2.694   0.598
47387W        W89398   0.389   0.854   4.152
47388W        W89399  20.399  11.624   9.342
47389W        W89400   6.409  14.434   9.772
47390W        W89401   9.759  23.481  11.502
47391W        W89402   4.069   1.224  11.462
47392W        W89403  17.699  12.994   1.678
47393W        W89404  20.649  13.244   2.812
47394W        W89405   9.929   7.714   3.672
47395W        W89406  20.659  21.901  12.252
47396W        W89407  10.789   9.234  14.972
47397W        W89408  10.449  14.634   3.432
47398W        W89409  20.389  17.144   7.342
47399W        W89410  15.169  12.894   2.792
47400W        W89411  24.279  12.384   1.328
47401W        W89412  13.239  11.044   1.788
47402W        W89413   3.689  11.064   1.158
47403W        W89414   0.011  24.961   3.002
47404W        W89415  24.999  23.141  15.572
47405W        W89416  25.009  23.881   3.042
47406W        W89417  21.669  20.624   0.598
47407W        W89418   8.039  16.964   9.592
47408W        W89419  24.799  22.851   8.762
47409W        W89420  24.469  12.364  10.882
47410W        W89421  16.909  14.814   9.372
47411W        W89422   2.449  19.474   8.762
47412W        W89423  18.209   7.814  15.052
47413W        W89424  23.549  18.254   1.018
47414W        W89425  19.489  10.534  15.832
47415W        W89426  20.079  20.454   8.072
47416W        W89427  24.649   7.664   0.448
47417W        W89428   8.859   3.774   3.082
47418W        W89429  15.249  10.274   3.252
47419W        W89430  19.529   6.204   8.792
47420W        W89431  20.449  17.744  11.092
47421W        W89432   3.989   3.454   8.312
47422W        W89433  16.899  15.844  15.112
47423W        W89434  21.629  21.871   8.592
47424W        W89435   4.709   4.654   9.822
47425W        W89436  14.189   9.054  14.882
47426W        W89437  17.119  23.811  11.502
47427W        W89438  22.719  11.714  10.842
47428W        W89439   3.029  17.104  11.492
47429W        W89440  10.679   3.614   9.202
47430W        W89441  18.799   4.134   0.468
47431W        W89442   4.799   4.454  11.042
47432W        W89443  15.569  21.991   1.768
47433W        W89444  23.839  18.834   1.568
47434W        W89445   4.239  14.984   0.488
47435W        W89446  23.139  15.284  11.622
47436W        W89447   2.999  17.464   3.212
47437W        W89448  11.629   9.144   0.308
47438W        W89449   4.749  13.244   8.102
47439W        W89450  12.669   0.314   8.772
47440W        W89451   8.849  11.894  10.742
47441W        W89452  18.649   8.804   2.208
47442W        W89453   0.689   5.804  10.612
47443W        W89454  18.249   2.244   2.098
47444W        W89455  25.269   3.024   1.908
47445W        W89456  15.299  13.824   2.158
47446W        W89457  16.979  13.064  15.532
47447W        W89458   6.469  17.784   9.012
47448W        W89459   3.159  12.664   0.048
47449W        W89460  21.779  10.584   0.058
47450W        W89461   0.669  16.544   9.632
47451W        W89462   2.229  24.191   3.022
47452W        W89463  10.159  17.224   1.678
47453W        W89464   8.169  11.794   4.502
47454W        W89465  10.839  14.334   2.692
47455W        W89466   1.329  18.024   2.982
47456W        W89467  20.989  22.181   4.062
47457W        W89468  11.209  14.254   2.278
47458W        W89469   2.849  14.884   9.902
47459W        W89470   4.699   0.704   9.022
47460W        W89471  24.789  16.564  10.442
47461W        W89472  24.989  20.744   3.132
47462W        W89473  16.899   4.824   1.198
47463W        W89474  20.369  14.724   8.732
47464W        W89475  13.959  10.234   8.422
47465W        W89476   4.099   2.264   3.512
47466W        W89477  20.839  10.764   1.808
47467W        W89478   6.579   9.024   1.388
47468W        W89479  20.869  23.001   9.222
47469W        W89480   6.839   2.594  11.062
47470W        W89481  24.419  16.264   3.342
47471W        W89482  21.819  13.724   8.652
47472W        W89483  20.759  16.884   1.488
47473W        W89484   4.409   5.864   7.972
47474W        W89485   0.329   2.164  11.682
47475W        W89486   3.579   5.244  10.602
47476W        W89487   6.399  22.811   3.672
47477W        W89488   2.059   7.664   0.478
47478W        W89489   8.529   0.624   7.732
47479W        W89490   6.009  16.504   1.828
47480W        W89491  19.649   2.314   1.678
47481W        W89492   4.789   7.074   8.412
47482W        W89493  20.819  18.884   7.842
47483W        W89494  23.359   4.094  11.692
47484W        W89495  10.139  14.814  14.552
47485W        W89496   6.969  16.014   0.008
47486W        W89497   4.899  15.994  15.702
47487W        W89498  11.629   1.484  14.962
47488W        W89499   7.639  16.694   9.702
47489W        W89500  18.959  11.314   0.268
47490W        W89501   1.109  14.584   3.852
47491W        W89502  19.109  22.961   1.048
47492W        W89503  25.189   5.604  10.412
47493W        W89504  12.949  16.634   4.572
47494W        W89505  22.769   1.584   8.852
47495W        W89506  17.669   7.704  11.072
47496W        W89507  23.719  23.021   1.638
47497W        W89508   9.139  23.531   2.488
47498W        W89509  17.139   8.794   8.682
47499W        W89510  13.319  13.524   5.182
47500W        W89511  12.239  18.934   3.192
47501W        W89512  23.949  12.754   7.432
47502W        W89513   2.029  22.581   7.722
47503W        W89514   1.569   6.814   7.632
47504W        W89515   8.619  24.151   2.058
47505W        W89516   4.509  24.641   9.612
47506W        W89517  13.119  24.631   0.418
47507W        W89518  11.899  13.324  15.212
47508W        W89519  16.019   8.884   2.058
47509W        W89520  18.189  21.034   1.818
47510W        W89521  23.409   9.004  10.092
47511W        W89522  17.849   5.824   7.642
47512W        W89523   1.009  19.604   8.192
47513W        W89524  21.159   4.974  10.592
47514W        W89525   5.239  18.074   3.972
47515W        W89526  19.879  16.684   2.488
47516W        W89527  20.209   6.524   9.602
47517W        W89528  17.219   8.494   9.352
47518W        W89529  10.179   1.214   3.502
47519W        W89530   1.949   0.544  10.442
47520W        W89531   0.459  16.664   0.828
47521W        W89532  16.799  19.224   9.952
47522W        W89533  16.119  15.544  15.822
47523W        W89534   2.869  25.301   8.342
47524W        W89535   2.769   8.374  15.482
47525W        W89536  12.279   1.554   0.688
47526W        W89537  10.149   2.554   1.428
47527W        W89538  20.209  25.001   9.242
47528W        W89539  20.039   9.344   9.142
47529W        W89540  14.619  22.571  11.402
47530W        W89541  17.009  15.094  11.052
47531W        W89542   2.889  10.134  15.212
47532W        W89543  21.839  16.314  10.282
47533W        W89544  13.079  17.204  15.802
47534W        W89545  14.409  21.194   2.542
47535W        W89546   5.989   4.174   8.122
47536W        W89547  12.279  25.091   3.312
47537W        W89548  23.659  15.404   8.252
47538W        W89549   0.469  16.634   9.172
47539W        W89550   5.809   3.654   2.902
47540W        W89551  22.899  21.791  10.212
47541W        W89552   3.299   6.844  10.852
47542W        W89553  20.939  11.784   3.472
47543W        W89554  18.039   5.064  10.302
47544W        W89555   5.589  16.814   0.618
47545W        W89556   2.319  19.554   0.598
47546W        W89557  11.669  10.384   9.292
47547W        W89558   2.219   6.674   0.768
47548W        W89559  13.099   9.914  10.562
47549W        W89560  10.029  22.161   1.948
47550W        W89561   2.949  22.491   9.882
47551W        W89562  12.669   6.144   0.258
47552W        W89563  22.759  14.974  11.702
47553W        W89564  12.119  14.674   2.852
47554W        W89565   3.579  12.854   9.132
47555W        W89566  17.219   2.534   4.362
47556W        W89567   6.319  14.984   9.312
47557W        W89568  23.699   0.564   8.452
47558W        W89569  16.649   9.994   3.232
47559W        W89570   9.689  22.311  10.802
47560W        W89571   9.809   0.284  10.252
47561W        W89572  21.839  23.041   2.458
47562W        W89573   4.559  22.411   2.168
47563W        W89574  16.099  17.574   0.448
47564W        W89575  18.669  22.061   2.348
47565W        W89576  11.639  10.414   1.798
47566W        W89577   0.759  12.144   0.468
47567W        W89578   5.779   6.754   8.252
47568W        W89579  10.819  10.884  15.272
47569W        W89580  23.629   4.974   1.408
47570W        W89581   1.509  24.091   1.428
47571W        W89582   1.999  18.834  10.952
47572W        W89583   2.539   9.934  15.862
47573W        W89584  23.699  14.974  10.052
47574W        W89585   6.839  24.101   9.732
47575W        W89586   7.409  16.144  15.722
47576W        W89587   1.659  19.134   9.982
47577W        W89588  14.309  24.361   8.922
47578W        W89589  21.789  24.521   3.552
47579W        W89590   9.829  10.304  14.812
47580W        W89591  12.709   0.014   2.438
47581W        W89592  17.769  10.824   3.762
47582W        W89593  20.429  13.384   8.492
47583W        W89594  22.799  13.494   8.602
47584W        W89595   7.239  15.884  10.002
47585W        W89596   8.569   7.794   9.702
47586W        W89597  20.729   0.734   1.268
47587W        W89598   5.649  19.744  11.302
47588W        W89599  19.519  23.101  15.812
47589W        W89600  21.209  13.344   9.192
47590W        W89601   4.269  16.304   2.932
47591W        W89602   4.799   4.114   9.422
47592W        W89603  16.659  21.421   8.822
47593W        W89604   6.239  22.631   0.788
47594W        W89605  24.599   0.354   9.042
47595W        W89606  16.739  25.531   0.958
47596W        W89607  14.789   4.874   1.218
47597W        W89608   9.009  16.934   1.148
47598W        W89609   0.449  17.714   9.292
47599W        W89610   4.669   9.504  11.322
47600W        W89611   3.829  24.771   0.538
47601W        W89612  13.579  13.984   2.702
47602W        W89613  21.709   7.324   3.122
47603W        W89614  13.189   8.274   7.902
47604W        W89615   6.369  15.684   8.762
47605W        W89616  18.379   7.004   3.102
47606W        W89617   0.189  23.771  11.172
47607W        W89618  21.769  10.804  11.592
47608W        W89619  25.139  10.674   8.702
47609W        W89620   3.839   0.214  11.702
47610W        W89621   5.699  10.534  11.582
47611W        W89622   5.969  14.764   0.908
47612W        W89623  19.659  22.581   9.352
47613W        W89624   6.139   4.004   1.228
47614W        W89625   0.719  16.544   2.692
47615W        W89626  23.509  12.664   2.832
47616W        W89627   9.239  25.001   9.362
47617W        W89628   6.829  18.534   3.532
47618W        W89629  20.779  16.954   2.258
47619W        W89630   8.579   4.024   1.238
47620W        W89631   3.349   5.704   7.452
47621W        W89632   6.189  18.874   8.282
47622W        W89633   8.379  20.564   8.822
47623W        W89634  15.939   5.494   9.632
47624W        W89635   1.899  12.074   2.438
47625W        W89636  18.549  20.424   0.328
47626W        W89637   2.909   5.954   6.662
47627W        W89638  19.509   6.104   2.792
47628W        W89639  12.979   5.704   0.898
47629W        W89640  19.739   0.424   2.288
47630W        W89641  10.539   1.714   1.578
47631W        W89642  11.779  13.624   1.818
47632W        W89643  20.399   1.014   0.078
47633W        W89644   0.549   6.454   3.282
47634W        W89645   5.689  20.914   2.428
47635W        W89646  24.359  20.434   0.628
47636W        W89647  15.319  19.684   2.532
47637W        W89648  18.999   6.524   4.192
47638W        W89649  13.369   1.174  11.082
47639W        W89650  10.449  14.094   1.398
47640W        W89651  13.969   6.894  10.622
47641W        W89652   4.059   2.144   8.492
47642W        W89653   7.639   7.804   9.152
47643W        W89654   6.469   4.024  14.582
47644W        W89655  10.769  21.044   5.202
47645W        W89656   5.939  23.151   0.278
47646W        W89657  13.089  15.934   0.578
47647W        W89658   6.459   8.284   2.038
47648W        W89659  11.489  16.144   3.832
47649W        W89660  13.129  18.474  15.122
47650W        W89661  20.509  18.824   0.958
47651W        W89662   1.549   0.774   6.802
47652W        W89663  12.369  25.241   2.358
47653W        W89664  19.779  22.051  11.512
47654W        W89665  19.269  22.681  11.522
47655W        W89666  17.889  19.724   0.628
47656W        W89667  21.969  23.411   1.258
47657W        W89668  10.609  14.374  10.392
47658W        W89669  13.459   2.014  10.012
47659W        W89670   1.309  14.284  15.692
47660W        W89671  19.379   4.524   1.368
47661W        W89672  16.949  23.391  10.432
47662W        W89673   8.419  16.024  10.752
47663W        W89674   9.309   4.354  11.202
47664W        W89675  20.279  11.494   0.658
47665W        W89676   8.729  21.791  10.342
47666W        W89677   6.219   6.774   6.952
47667W        W89678   3.389   3.044   1.848
47668W        W89679  23.179   1.964   8.532
47669W        W89680  11.269  23.221  10.352
47670W        W89681  18.199  17.684   1.708
47671W        W89682  24.749  19.364  10.802
47672W        W89683  21.719   3.294   9.902
47673W        W89684  13.389  18.974  10.232
47674W        W89685   4.799  20.664   3.562
47675W        W89686   6.659   8.974   2.832
47676W        W89687  13.939  24.621   2.028
47677W        W89688   7.889   5.154   2.562
47678W        W89689   3.359  19.504   2.488
47679W        W89690  13.479  22.351   9.582
47680W        W89691  11.989  19.834   4.232
47681W        W89692  21.729   2.494   0.818
47682W        W89693   0.919  18.284   2.972
47683W        W89694   6.329   8.984   1.888
47684W        W89695  19.039   4.834   3.662
47685W        W89696  23.469  11.264  10.842
47686W        W89697  24.809  19.074   0.298
47687W        W89698  11.599   5.044   3.572
47688W        W89699  17.839  15.594   9.822
47689W        W89700   2.449   7.874   0.978
47690W        W89701  11.849  11.674   3.272
47691W        W89702   4.909  19.624  15.632
47692W        W89703  13.989  25.121   2.048
47693W        W89704  20.839  23.121   2.378
47694W        W89705  24.869   1.804   8.312
47695W        W89706  13.159  14.754   2.228
47696W        W89707  21.379  10.824   1.498
47697W        W89708   5.559  16.574   9.212
47698W        W89709  10.539  18.024  10.312
47699W        W89710  14.159  18.144   0.468
47700W        W89711  19.499   0.564   8.912
47701W        W89712   1.499  14.054   1.938
47702W        W89713   0.099  19.064  12.632
47703W        W89714  16.289  22.061  10.282
47704W        W89715   9.219  13.234  15.252
47705W        W89716  17.389  22.421  11.962
47706W        W89717  10.319  22.751   7.702
47707W        W89718  24.579   6.884  10.062
47708W        W89719  14.049   9.154   3.892
47709W        W89720   9.069   2.564  15.692
47710W        W89721   3.259  15.184   9.712
47711W        W89722  15.549  23.891   1.608
47712W        W89723   4.109  15.704   2.562
47713W        W89724   1.169  24.381   9.562
47714W        W89725  24.559   8.424   8.312
47715W        W89726   0.479  17.384   7.602
47716W        W89727  21.549  16.104   1.368
47717W        W89728   1.149  18.134   0.398
47718W        W89729   7.109  23.731   9.572
47719W        W89730   5.229   7.874   0.488
47720W        W89731   6.559  12.524   0.998
47721W        W89732  23.049   5.414   8.662
47722W        W89733   5.479  16.144   2.572
47723W        W89734  22.029  18.034  11.122
47724W        W89735  25.189  10.094  10.232
47725W        W89736   1.309  11.584  15.852
47726W        W89737  22.859   5.034   8.912
47727W        W89738  18.779  12.364   3.242
47728W        W89739  15.959   5.084  15.792
47729W        W89740   4.109  24.951   1.068
47730W        W89741   4.139   0.484   8.652
47731W        W89742   1.069   2.034   0.898
47732W        W89743   8.779  23.831   8.802
47733W        W89744  16.509   3.744   2.592
47734W        W89745  13.149  11.144  13.942
47735W        W89746   0.329   3.504   0.238
47736W        W89747  24.359  22.611   1.018
47737W        W89748   4.629  17.044  15.312
47738W        W89749  18.269  22.831   9.442
47739W        W89750  20.089  24.781   4.192
47740W        W89751  20.909  24.501  10.132
47741W        W89752   2.689   2.744   7.762
47742W        W89753  15.689   8.504  14.652
47743W        W89754  12.109  12.684   0.818
47744W        W89755  22.429  13.084   2.542
47745W        W89756  25.149   3.024   8.992
47746W        W89757  11.369   6.984   0.178
47747W        W89758  22.109   5.014   1.618
47748W        W89759  25.179   3.714  11.222
47749W        W89760  24.489  25.181  11.902
47750W        W89761   2.939  20.644   0.198
47751W        W89762   7.409  15.024   8.392
47752W        W89763  15.059  19.264   9.132
47753W        W89764  11.489  18.284   2.762
47754W        W89765  20.419  10.154   2.488
47755W        W89766  23.629  11.514   9.312
47756W        W89767   1.859  19.274   9.572
47757W        W89768   5.959  13.554   8.522
47758W        W89769   8.639  14.114   9.032
47759W        W89770  22.619  10.484   3.792
47760W        W89771   5.089  23.621   2.478
47761W        W89772  22.319  15.074   4.212
47762W        W89773  20.879  13.704  11.322
47763W        W89774  23.059  19.834   2.468
47764W        W89775   3.399  12.814  10.742
47765W        W89776  10.969  11.654   9.342
47766W        W89777  24.149   1.724  11.582
47767W        W89778  22.839   3.164  10.542
47768W        W89779  13.019   2.634  15.302
47769W        W89780  14.459  11.254  10.362
47770W        W89781  16.459  12.274   2.028
47771W        W89782   5.809  15.674   4.302
47772W        W89783   6.719  18.994   1.538
47773W        W89784   4.949  24.441   8.342
47774W        W89785   3.839   0.194   7.012
47775W        W89786  16.349  16.584   8.412
47776W        W89787  12.129  12.984   1.508
47777W        W89788  11.119  16.084   1.838
47778W        W89789   7.879   1.814   9.222
47779W        W89790   0.439   2.954  10.522
47780W        W89791   7.059   9.984  10.232
47781W        W89792  23.249  13.934  10.352
47782W        W89793  20.979  12.874  12.022
47783W        W89794  19.539  11.954  10.512
47784W        W89795   1.029   0.744   2.902
47785W        W89796  11.019   5.504  10.392
47786W        W89797  21.549   0.274   7.312
47787W        W89798  25.059   2.864   7.632
47788W        W89799  21.429  12.014   1.598
47789W        W89800   5.779  13.524   7.962
47790W        W89801   8.519  22.671   2.992
47791W        W89802  22.249  22.391   8.762
47792W        W89803  20.819  10.484   9.932
47793W        W89804  21.919  16.974   9.582
47794W        W89805   9.729   5.624  10.032
47795W        W89806   8.089  14.174  10.412
47796W        W89807   8.589  25.301   0.328
47797W        W89808  10.609  17.514  10.272
47798W        W89809  25.319  19.844  10.492
47799W        W89810   2.809  23.341   7.722
47800W        W89811  20.639  12.514   3.802
47801W        W89812   2.259  12.494   1.178
47802W        W89813  18.749  21.481   1.308
47803W        W89814   4.249  23.501  15.872
47804W        W89815   4.909   3.004   4.202
47805W        W89816   8.149   4.734   0.598
47806W        W89817   0.011  15.544  15.472
47807W        W89818  17.129  23.781   9.002
47808W        W89819  23.459   7.054   7.512
47809W        W89820  18.289  20.174  10.982
47810W        W89821   9.459  10.544  14.652
47811W        W89822  10.589  23.051   8.952
47812W        W89823   8.189  11.504   1.518
47813W        W89824   1.979  18.424   7.442
47814W        W89825  10.409   8.014   3.592
47815W        W89826  14.139   8.414   0.288
47816W        W89827  22.569  22.441  12.432
47817W        W89828  23.529   9.064   7.142
47818W        W89829   8.329  21.771  15.212
47819W        W89830   1.059  16.814  10.522
47820W        W89831  22.989  15.304   3.122
47821W        W89832   0.949  17.144   3.022
47822W        W89833  15.239   8.334   4.742
47823W        W89834  12.509   0.244   1.158
47824W        W89835  24.699   2.194   2.408
47825W        W89836   6.329  16.764  10.292
47826W        W89837   4.269   7.644   0.688
47827W        W89838  21.559   9.854   7.922
47828W        W89839  16.629   2.794   2.428
47829W        W89840   9.779   1.064   0.718
47830W        W89841  12.739  14.834  14.172
47831W        W89842   3.919   0.814  10.092
47832W        W89843  25.569  11.974  15.192
47833W        W89844  11.599   7.034  15.012
47834W        W89845  13.929  18.174   2.348
47835W        W89846   0.369   3.764  10.992
47836W        W89847  18.089   5.334   9.712
47837W        W89848   2.179  14.384  11.142
47838W        W89849   8.989   2.664   2.218
47839W        W89850  12.819   7.144   1.148
47840W        W89851   3.699  11.264  15.202
47841W        W89852  23.149  14.724   1.468
47842W        W89853  14.409  14.214   0.478
47843W        W89854   5.209  15.024  10.452
47844W        W89855   3.209  13.394   0.608
47845W        W89856   4.359  17.494   2.512
47846W        W89857   5.759   4.544   7.852
47847W        W89858  11.739  23.201   8.612
47848W        W89859  22.139   4.074   3.342
47849W        W89860  22.289  16.634   9.582
47850W        W89861   2.149  22.861   9.452
47851W        W89862  21.049  10.174   1.128
47852W        W89863  11.789  13.344   1.298
47853W        W89864   3.439   0.044  11.152
47854W        W89865   4.179  14.064   1.198
47855W        W89866  19.299  24.721   1.468
47856W        W89867   0.339  10.864  10.292
47857W        W89868  18.199   7.834   3.782
47858W        W89869  11.259   0.294   8.462
47859W        W89870  22.769  13.574   0.628
47860W        W89871  15.499  21.491  10.452
47861W        W89872  23.919   2.614   0.708
47862W        W89873   9.379  21.701  11.012
47863W        W89874  16.219   0.164   2.982
47864W        W89875  24.679   9.084  10.642
47865W        W89876   9.149   2.534   3.512
47866W        W89877  17.049   9.274  11.082
47867W        W89878  22.219  11.914  11.672
47868W        W89879  22.539   7.014   0.118
47869W        W89880  17.259  25.171  10.952
47870W        W89881   9.709   9.074   2.852
47871W        W89882  23.709   8.614  10.522
47872W        W89883   3.509  19.454   0.808
47873W        W89884  16.559  12.754   0.468
47874W        W89885   8.649  20.574   1.488
47875W        W89886  10.679  12.124   3.362
47876W        W89887   2.629  22.921   2.972
47877W        W89888  25.159   9.504   2.218
47878W        W89889   5.439  17.294   0.098
47879W        W89890  17.489  14.844   8.172
47880W        W89891   3.039  17.684  10.482
47881W        W89892  10.659   8.624  11.002
47882W        W89893   8.609  24.981   7.332
47883W        W89894   6.119   0.214   0.388
47884W        W89895  22.419  17.204   1.998
47885W        W89896  17.189  14.494   9.762
47886W        W89897   1.099   0.874   9.022
47887W        W89898  13.079   9.894  14.912
47888W        W89899   0.619   8.104  10.722
47889W        W89900  24.019  17.864   2.088
47890W        W89901  17.309  13.394   1.788
47891W        W89902   5.399  20.794   8.442
47892W        W89903  11.389  12.614   4.452
47893W        W89904   1.649  18.124   7.692
47894W        W89905  14.799  11.544  15.632
47895W        W89906  13.829  14.614   1.598
47896W        W89907  17.149  20.324   3.112
47897W        W89908  19.829   9.554   1.768
47898W        W89909  18.889   0.664   0.508
47899W        W89910   5.389   6.354  14.832
47900W        W89911  16.049   6.344   1.638
47901W        W89912   7.399  16.274   2.478
47902W        W89913  24.859   4.324   0.018
47903W        W89914   5.409  11.824   8.402
47904W        W89915  19.439  17.074   0.938
47905W        W89916   9.019  14.934   4.402
47906W        W89917   6.779  10.874  10.602
47907W        W89918  17.409   1.354   4.572
47908W        W89919   8.269  17.834   9.612
47909W        W89920   1.839   4.994   8.112
47910W        W89921   2.969   1.674   2.108
47911W        W89922  18.279  25.051  12.552
47912W        W89923  22.459  20.864   1.438
47913W        W89924   8.279  17.384   9.272
47914W        W89925   4.689  19.914   9.192
47915W        W89926   4.259   0.234   1.068
47916W        W89927   4.079  11.244   1.468
47917W        W89928  16.689  20.624   0.478
47918W        W89929  10.689   0.774   2.118
47919W        W89930  17.439   3.274   9.412
47920W        W89931   6.769   3.504   2.952
47921W        W89932   9.909  21.521   0.508
47922W        W89933   5.279  24.351  15.042
47923W        W89934  25.299  24.501  11.732
47924W        W89935  24.249   1.794   4.102
47925W        W89936  13.469  10.734  10.052
47926W        W89937   9.189   5.124   8.422
47927W        W89938  19.029  11.814   1.398
47928W        W89939  12.379  19.114   0.458
47929W        W89940  10.269  25.001   9.342
47930W        W89941  20.229   1.714  10.122
47931W        W89942   8.609   3.314  15.552
47932W        W89943  10.669  16.324   1.458
47933W        W89944  10.559  12.174   1.578
47934W        W89945   4.449   7.904   0.138
47935W        W89946  17.779   1.964   3.232
47936W        W89947   0.619  13.234   8.062
47937W        W89948  14.769   8.954   9.912
47938W        W89949  16.979  24.131   8.752
47939W        W89950   4.739  10.534   3.592
47940W        W89951  11.559  20.804   9.842
47941W        W89952   3.319  25.151   7.482
47942W        W89953   2.719  15.944  10.922
47943W        W89954  16.429   3.014   1.048
47944W        W89955   0.579  24.451   0.938
47945W        W89956   6.889  18.544   7.552
47946W        W89957  21.869  21.244  11.842
47947W        W89958  18.609  12.754  14.782
47948W        W89959  21.299   1.584  11.232
47949W        W89960  13.109  20.664   1.168
47950W        W89961   7.539  19.864  10.042
47951W        W89962  12.809  19.814   9.912
47952W        W89963  13.089  17.954  14.062
47953W        W89964  11.039   9.654  15.862
47954W        W89965   0.289  13.554  10.482
47955W        W89966   6.769   2.274   2.088
47956W        W89967   9.079  25.091   8.052
47957W        W89968  16.649  10.754   9.822
47958W        W89969   5.489   9.504   7.982
47959W        W89970  24.099  17.084   3.492
47960W        W89971   8.729  13.274   1.088
47961W        W89972   8.869  10.424   9.312
47962W        W89973  15.719   1.784   3.092
47963W        W89974   5.259   6.294  15.642
47964W        W89975   6.329  12.414   2.388
47965W        W89976   4.429   6.344   7.272
47966W        W89977   0.011  22.021   1.388
47967W        W89978  23.859  16.974  15.852
47968W        W89979  18.509   2.224   7.402
47969W        W89980  21.889   9.594  10.302
47970W        W89981   2.779  14.974   0.388
47971W        W89982   7.939  11.934   2.852
47972W        W89983  11.239  17.504   4.532
47973W        W89984  24.849  10.604   7.732
47974W        W89985  24.639  10.464   9.732
47975W        W89986  16.409   5.234   8.582
47976W        W89987  15.719  22.351  11.002
47977W        W89988  16.809   3.254   0.698
47978W        W89989   4.999   5.954   0.048
47979W        W89990  20.189   9.644   2.592
47980W        W89991   0.919  23.311   8.462
47981W        W89992  22.039  18.114   9.532
47982W        W89993   7.169  17.124   1.358
47983W        W89994   2.449  22.611   1.598
47984W        W89995   6.919   3.724   8.942
47985W        W89996  17.349  12.234   9.252
47986W        W89997  14.879   4.864   1.738
47987W        W89998   9.149  10.804  10.312
47988W        W89999   8.809   5.534  11.102
47989W        W90000  14.459   3.744   1.378
47990W        W90001   0.319   1.184   7.942
47991W        W90002   9.259   3.884   3.362
47992W        W90003  23.719   9.124  10.642
47993W        W90004  20.449  21.034   1.078
47994W        W90005  22.909   7.184  10.732
47995W        W90006   2.779  14.264  14.682
47996W        W90007  15.559  24.031  11.892
47997W        W90008   6.469  21.354   3.552
47998W        W90009  22.109  17.614   7.652
47999W        W90010   4.529  17.374  10.062
48000W        W90011   9.919   0.304   3.982
48001W        W90012   4.139  12.054   7.422
48002W        W90013   2.569  17.954   9.752
48003W        W90014  18.369  24.191  10.362
48004W        W90015  24.979  23.551   9.592
48005W        W90016  10.349  19.964  10.712
48006W        W90017   3.699   1.214   7.692
48007W        W90018  10.549   4.264   2.168
48008W        W90019  13.899   4.794   8.522
48009W        W90020  24.689  14.544  15.812
48010W        W90021  21.879  25.591  12.642
48011W        W90022   8.739  25.221   9.222
48012W        W90023   5.689   4.694   3.002
48013W        W90024   0.449  10.264  15.852
48014W        W90025  10.939   0.304   3.212
48015W        W90026  11.759   5.514  11.002
48016W        W90027  22.479   1.284   0.608
48017W        W90028   3.239   6.444   1.618
48018W        W90029  19.439  22.171   2.552
48019W        W90030   8.749   6.504  11.422
48020W        W90031  18.589  19.734  10.892
48021W        W90032  18.679   0.474   4.122
48022W        W90033  10.779  16.534   1.998
48023W        W90034  16.459  15.154   0.198
48024W        W90035   8.059  15.974   1.538
48025W        W90036  21.519  11.044   9.312
48026W        W90037  12.959  16.804   1.098
48027W        W90038  16.829  23.381  11.322
48028W        W90039  11.649   0.304   1.038
48029W        W90040  23.819  14.244  11.182
48030W        W90041  24.049   6.674   9.122
48031W        W90042  12.179   6.594   9.862
48032W        W90043  19.599  12.684  15.352
48033W        W90044  23.609   5.774   0.118
48034W        W90045  25.129  11.814  10.662
48035W        W90046  20.839   5.214   2.118
48036W        W90047  17.579   2.744   2.632
48037W        W90048  22.789  12.384   3.392
48038W        W90049  21.309  11.244   0.598
48039W        W90050   2.119  18.654  10.392
48040W        W90051  16.239  15.854   4.062
48041W        W90052  21.019  19.014   0.848
48042W        W90053   5.809  20.244   4.112
48043W        W90054  21.849   1.114   1.648
48044W        W90055   5.789  23.241  10.802
48045W        W90056  14.359  23.001   3.832
48046W        W90057   6.839  25.331  10.532
48047W        W90058  13.329   4.434   0.908
48048W        W90059   6.469   7.134   7.392
48049W        W90060  19.329  21.134   0.718
48050W        W90061   0.559  10.644   0.588
48051W        W90062  13.789   1.254   4.482
48052W        W90063  15.479   4.744   3.532
48053W        W90064  15.239  20.874   0.958
48054W        W90065  13.429   1.344  14.652
48055W        W90066   5.359   2.634   1.848
48056W        W90067  19.069  13.754  14.972
48057W        W90068   4.199  15.464   1.538
48058W        W90069  18.109  12.894   7.872
48059W        W90070   3.159   4.064   7.652
48060W        W90071  17.609  18.504   3.852
48061W        W90072  21.019   2.374  10.932
48062W        W90073  13.339   4.774   1.318
48063W        W90074  21.129   5.524  15.382
48064W        W90075   6.229   9.134   9.782
48065W        W90076  14.409   3.214   9.702
48066W        W90077  20.569  16.344   2.458
48067W        W90078   4.019  24.791  15.552
48068W        W90079  17.759   0.774  10.872
48069W        W90080   3.709   4.284  10.132
48070W        W90081   6.789  11.204   3.622
48071W        W90082  14.169  21.064   9.992
48072W        W90083  20.619  13.244  11.072
48073W        W90084  15.959  19.264   9.972
48074W        W90085   0.219  12.874   8.162
48075W        W90086  13.089   7.644   2.942
48076W        W90087   0.049   3.644   7.392
48077W        W90088  15.289   8.554   9.462
48078W        W90089  16.289   5.914   0.418
48079W        W90090  14.099   0.194  10.712
48080W        W90091   4.529  21.411   1.938
48081W        W90092  16.699  14.814   3.482
48082W        W90093  17.009   7.284  10.052
48083W        W90094  24.539   6.154   9.702
48084W        W90095  11.209   4.364   4.132
48085W        W90096  20.009  24.561   0.498
48086W        W90097  12.689  25.381   1.978
48087W        W90098  16.719   0.534   0.698
48088W        W90099  23.069  24.861  10.192
48089W        W90100  20.479  20.114   7.652
48090W        W90101  12.839  20.424   2.682
48091W        W90102   7.189   9.694   3.612
48092W        W90103   2.589  21.971   1.358
48093W        W90104  13.019   1.954   9.732
48094W        W90105  10.829   0.404   0.618
48095W        W90106  10.869  21.004   3.952
48096W        W90107   9.259  23.131   9.142
48097W        W90108   6.869  25.141   7.892
48098W        W90109  19.239  19.934   9.252
48099W        W90110   3.499  18.864  10.032
48100W        W90111  23.239  14.944  10.462
48101W        W90112   6.009  22.341   2.752
48102W        W90113   7.829   9.144   2.148
48103W        W90114  11.439  12.914  10.012
48104W        W90115  14.629   9.824   2.852
48105W        W90116  15.589  10.674   2.298
48106W        W90117  11.579   0.214  15.102
48107W        W90118   4.679  15.094   1.378
48108W        W90119  21.779  17.954   2.298
48109W        W90120   7.409   6.994   9.582
48110W        W90121  13.589  18.524   2.268
48111W        W90122  25.099   2.604   2.822
48112W        W90123  22.039   5.474   2.792
48113W        W90124   1.549  22.621   8.722
48114W        W90125  25.029  17.964   2.682
48115W        W90126   0.589  25.381  11.772
48116W        W90127   0.539   5.734  15.582
48117W        W90128  19.989  15.564   1.618
48118W        W90129  17.619  11.944  11.242
48119W        W90130   4.209   6.004   0.618
48120W        W90131  16.629   0.434   8.542
48121W        W90132  11.049   8.234  10.872
48122W        W90133   3.359   5.504   3.482
48123W        W90134  19.849   2.864   9.752
48124W        W90135  10.259   4.054   0.318
48125W        W90136  12.629  13.454   2.642
48126W        W90137  24.249  11.914   9.072
48127W        W90138  21.929  25.061   8.672
48128W        W90139   5.659  17.934   9.482
48129W        W90140   5.079  15.314   8.992
48130W        W90141  16.669  19.944   8.452
48131W        W90142   0.389  17.704  11.552
48132W        W90143  17.179  14.404  15.152
48133W        W90144  14.959  25.141  15.772
48134W        W90145  21.089   4.084   1.478
48135W        W90146   4.739  12.074   2.722
48136W        W90147  18.589  18.334   3.572
48137W        W90148   0.929   8.004   9.122
48138W        W90149   8.559  12.904  10.872
48139W        W90150  24.639  12.074   7.622
48140W        W90151  22.839  18.784   2.478
48141W        W90152  22.089   2.504   8.812
48142W        W90153   8.529   9.024  10.892
48143W        W90154   5.959   5.944   0.578
48144W        W90155   8.059   2.734  15.342
48145W        W90156   3.409   6.924   2.158
48146W        W90157   1.739   7.814   0.148
48147W        W90158   6.369  24.511   3.682
48148W        W90159   4.859   8.924   8.762
48149W        W90160  10.339  24.371   3.602
48150W        W90161   0.699  18.964  15.482
48151W        W90162   0.059   4.634   1.268
48152W        W90163  22.339   7.914   8.922
48153W        W90164  21.159  14.414   2.428
48154W        W90165  14.309  19.854   9.292
48155W        W90166  24.889  15.024  11.272
48156W        W90167  17.449   2.634  10.932
48157W        W90168   6.569  16.754   3.182
48158W        W90169  11.849   3.264  14.932
48159W        W90170  11.089  12.864  14.482
48160W        W90171  21.769  18.164   2.852
48161W        W90172  20.149  23.091   7.962
48162W        W90173  21.219  17.554   2.792
48163W        W90174  21.719  23.171   1.978
48164W        W90175   3.929  11.904   1.468
48165W        W90176   9.449  16.094   1.898
48166W        W90177  10.459   6.284  14.522
48167W        W90178  11.369   1.324   1.318
48168W        W90179  10.189  19.314   4.012
48169W        W90180  12.729  22.571   2.672
48170W        W90181  13.479  15.184   0.808
48171W        W90182  24.549   0.164   1.438
48172W        W90183  18.099  18.824  10.332
48173W        W90184  16.009   0.034   1.048
48174W        W90185  16.119  14.934   4.532
48175W        W90186  13.109   6.734   3.512
48176W        W90187  13.649  16.544   3.312
48177W        W90188  10.229   5.484  11.012
48178W        W90189  18.269  21.601   2.862
48179W        W90190  11.029   9.694   0.888
48180W        W90191  20.499  20.834   8.912
48181W        W90192   0.379  15.824  10.022
48182W        W90193  22.639  25.161   2.702
48183W        W90194   1.549  25.111  10.152
48184W        W90195  12.889  10.124   0.808
48185W        W90196  11.339  24.861   3.702
48186W        W90197  21.829  15.244   1.308
48187W        W90198   4.159  17.484   9.762
48188W        W90199  20.999   4.084  10.292
48189W        W90200  10.239   0.014  10.262
48190W        W90201   1.369  13.474   1.618
48191W        W90202  23.389   8.804   2.862
48192W        W90203   2.719   9.684  10.842
48193W        W90204  13.589   3.584   9.362
48194W        W90205  20.279   4.984   1.848
48195W        W90206   9.069  24.161   9.082
48196W        W90207  11.669   4.714  15.292
48197W        W90208  23.459  25.181   9.462
48198W        W90209   3.889  23.401   9.642
48199W        W90210   8.159  11.274  10.002
48200W        W90211  17.199  24.791  10.582
48201W        W90212   7.789   8.084   8.292
48202W        W90213   5.439   7.254  14.792
48203W        W90214   0.759  14.324  15.292
48204W        W90215   6.069   5.024   1.018
48205W        W90216  18.379   1.074   9.632
48206W        W90217   2.899   5.704   8.502
48207W        W90218   2.999   1.434   7.822
48208W        W90219  15.429   8.274   2.742
48209W        W90220  13.649   9.274  15.042
48210W        W90221  16.339   9.114   1.788
48211W        W90222   1.819   1.834   9.862
48212W        W90223  13.759  12.324   0.818
48213W        W90224   5.079  16.664   0.798
48214W        W90225  13.799   4.234   3.452
48215W        W90226  25.519   3.644   1.278
48216W        W90227   6.679   8.694   0.178
48217W        W90228   5.519  11.144   9.052
48218W        W90229   3.509   6.274  15.502
48219W        W90230   5.049  23.901  11.052
48220W        W90231  12.839  20.564   3.152
48221W        W90232  19.519  19.384   0.358
48222W        W90233   1.259  17.044   9.772
48223W        W90234   5.109  10.164   7.422
48224W        W90235  25.159   9.284   7.592
48225W        W90236  17.879  14.224   2.992
48226W        W90237  15.199  10.394   2.398
48227W        W90238   9.369  24.481   2.468
48228W        W90239   0.559   1.264   0.548
48229W        W90240  11.579  14.814   0.158
48230W        W90241   1.519  23.431  11.552
48231W        W90242   1.049  12.034  11.522
48232W        W90243  10.519  24.631  10.612
48233W        W90244  24.779   1.614   1.498
48234W        W90245  15.469   3.944   4.022
48235W        W90246  20.269  23.551   8.572
48236W        W90247  10.339   1.954   9.822
48237W        W90248  22.709  15.024  12.222
48238W        W90249  19.469   2.004   2.098
48239W        W90250  24.979  14.554  10.362
48240W        W90251   4.549  15.824   1.508
48241W        W90252  24.119  13.564   7.922
48242W        W90253   7.629  20.874   2.278
48243W        W90254   4.929  23.691   7.882
48244W        W90255   4.139  17.044  10.802
48245W        W90256   4.389   5.344   1.628
48246W        W90257  22.299  15.024   8.162
48247W        W90258  19.549   9.284  15.382
48248W        W90259   1.889  12.084  11.202
48249W        W90260  16.939  14.744   3.922
48250W        W90261  16.979  23.241   2.692
48251W        W90262   4.309   4.544   2.982
48252W        W90263  17.219  17.434  10.282
48253W        W90264  21.409   5.804   8.922
48254W        W90265  24.499  24.041   0.188
48255W        W90266   7.979  19.124   3.622
48256W        W90267  11.399   4.394  10.062
48257W        W90268  16.059  13.044   1.008
48258W        W90269  15.909  11.094   1.238
48259W        W90270   7.029   0.144  15.852
48260W        W90271  10.379   3.094   8.802
48261W        W90272  24.779   3.414   1.998
48262W        W90273  20.719  10.304  11.202
48263W        W90274   8.739   0.744  10.542
48264W        W90275  15.729  17.624   1.338
48265W        W90276   0.379  23.571   1.058
48266W        W90277  20.379   0.104   4.212
48267W        W90278  21.949   3.454   1.308
48268W        W90279   8.039  23.071   3.172
48269W        W90280  25.049  22.471   3.312
48270W        W90281   4.689  11.154   1.078
48271W        W90282  23.819   2.124   2.358
48272W        W90283   7.049   7.334   9.392
48273W        W90284  23.459  15.354   2.438
48274W        W90285   2.949   2.524   7.402
48275W        W90286  18.919  20.484  12.192
48276W        W90287  14.209   2.974   0.048
48277W        W90288  10.149  20.204   3.802
48278W        W90289   6.389   1.124   2.408
48279W        W90290   8.739  20.854   0.128
48280W        W90291   9.189  21.194   9.262
48281W        W90292  13.399   4.874   2.762
48282W        W90293  11.089   1.144   0.878
48283W        W90294   6.809  12.164  15.252
48284W        W90295  23.339  19.874  12.342
48285W        W90296  25.359  16.824   0.858
48286W        W90297  21.009  14.354   8.202
48287W        W90298  21.759   2.104   8.682
48288W        W90299  20.539  11.074   0.518
48289W        W90300   3.069   1.304   1.688
48290W        W90301   3.719  13.344   0.728
48291W        W90302   7.019  11.824   1.288
48292W        W90303   0.729  18.874   9.832
48293W        W90304   6.739   3.374   8.272
48294W        W90305   8.069   2.254  15.382
48295W        W90306  10.799  23.041  10.352
48296W        W90307  14.509  20.714   2.782
48297W        W90308  11.489  17.964   3.812
48298W        W90309   4.009  22.841   0.488
48299W        W90310   8.959   9.364   1.788
48300W        W90311  24.419   7.564   9.522
48301W        W90312  15.529   4.224  10.192
48302W        W90313  17.919   9.804   0.148
48303W        W90314  24.259  16.414   0.278
48304W        W90315   1.999  22.571   1.738
48305W        W90316   4.999  24.071   1.588
48306W        W90317  13.679   1.324  10.742
48307W        W90318   7.399  12.454   3.422
48308W        W90319  19.529  22.251   2.048
48309W        W90320   4.279   3.794   1.828
48310W        W90321   4.439  13.144   7.712
48311W        W90322  17.499   0.204  10.052
48312W        W90323  16.549   1.704   1.018
48313W        W90324   6.249  24.501  10.692
48314W        W90325  23.069  24.481   0.958
48315W        W90326  25.079   0.724   7.952
48316W        W90327   6.149  22.001  10.252
48317W        W90328  21.919   1.704   9.522
48318W        W90329   6.949  13.814   8.662
48319W        W90330   6.039   4.324   2.018
48320W        W90331   7.779   4.124   8.952
48321W        W90332  19.329   5.574   3.212
48322W        W90333  22.999  10.754   2.458
48323W        W90334  16.299  17.644  10.752
48324W        W90335  18.579   5.834   8.632
48325W        W90336   1.489  11.524   7.802
48326W        W90337   7.219   7.324   1.308
48327W        W90338  17.019  17.104  10.592
48328W        W90339   7.679  23.741   1.968
48329W        W90340  15.549   3.714   4.592
48330W        W90341  21.179  15.974   2.812
48331W        W90342  15.329  23.811   8.252
48332W        W90343  17.059  14.054   1.338
48333W        W90344  12.159   6.134   8.292
48334W        W90345   6.249  15.964   0.888
48335W        W90346  13.449  22.851   4.342
48336W        W90347  13.879   0.994   3.302
48337W        W90348   0.329  13.954   2.892
48338W        W90349  14.059  15.634   2.428
48339W        W90350  13.759  15.494   1.938
48340W        W90351   1.449  22.371   3.262
48341W        W90352   8.269  22.141   0.568
48342W        W90353  11.479  13.484  14.942
48343W        W90354  10.769  17.794   4.992
48344W        W90355   7.559   0.994   8.432
48345W        W90356  18.739  12.924   3.392
48346W        W90357   8.229  12.914   9.782
48347W        W90358  15.549   2.624   0.208
48348W        W90359  22.079  11.224   1.348
48349W        W90360  15.359  23.501   2.048
48350W        W90361   1.859   5.014   6.802
48351W        W90362  20.189  23.231  12.482
48352W        W90363  13.109  23.641   3.452
48353W        W90364  14.589   6.764  11.392
48354W        W90365   1.449   4.984  11.002
48355W        W90366  16.309   7.534   0.048
48356W        W90367  11.329   3.824   4.212
48357W        W90368   4.499   2.374   8.262
48358W        W90369   1.799  25.431   9.852
48359W        W90370   9.989  11.864  10.522
48360W        W90371   1.219   3.454  10.432
48361W        W90372  22.219   9.604   1.208
48362W        W90373  23.669   0.004   9.632
48363W        W90374   9.419  20.274   0.258
48364W        W90375  11.499  10.504   1.138
48365W        W90376  15.849  19.504   7.322
48366W        W90377   4.929  10.634   7.632
48367W        W90378  23.749  24.121  10.572
48368W        W90379   9.649  20.834   8.682
48369W        W90380   1.249  25.121   3.392
48370W        W90381  17.659  11.274  10.022
48371W        W90382  22.759  21.284  10.692
48372W        W90383  22.549   5.354   8.262
48373W        W90384  11.269  23.361   3.542
48374W        W90385  23.339  14.524  10.232
48375W        W90386  22.069  14.754  10.352
48376W        W90387   8.559   1.524  15.622
48377W        W90388  16.099  11.974   2.378
48378W        W90389   7.379  14.634  10.172
48379W        W90390  19.719   9.114  10.902
48380W        W90391  22.419  13.854  11.302
48381W        W90392  19.369   6.274   2.268
48382W        W90393  25.349   0.514  10.222
48383W        W90394  20.719  22.821   1.678
48384W        W90395   8.449  14.104   2.932
48385W        W90396   9.609   5.784   1.958
48386W        W90397   5.089  13.974   2.512
48387W        W90398   9.369  17.374   9.602
48388W        W90399   4.419  25.031   8.182
48389W        W90400   5.319  11.594   7.012
48390W        W90401  17.379   1.674   8.852
48391W        W90402  12.689  22.991   4.992
48392W        W90403   1.729  25.411   3.812
48393W        W90404  17.499   4.154   2.932
48394W        W90405   5.509  15.764  11.782
48395W        W90406  22.149  14.994  10.792
48396W        W90407   4.569   2.954   9.062
48397W        W90408  15.679   4.034  10.652
48398W        W90409   1.739   2.404   7.412
48399W        W90410  12.719  16.724   2.338
48400W        W90411  18.909   9.244  10.192
48401W        W90412  18.629   1.424   3.952
48402W        W90413  24.049  13.224   1.168
48403W        W90414  19.969   8.434   2.478
48404W        W90415   8.689   3.334   3.082
48405W        W90416   5.469  24.131  11.332
48406W        W90417   3.729  18.044   9.152
48407W        W90418  12.179  18.614   9.662
48408W        W90419   1.179   6.704  15.372
48409W        W90420  12.349   2.134  15.802
48410W        W90421  17.729   0.334   0.518
48411W        W90422  20.349  23.661   3.502
48412W        W90423  24.939  14.444   0.958
48413W        W90424  10.219  14.384   9.502
48414W        W90425   5.209  25.111   1.638
48415W        W90426  12.889  16.254   3.752
48416W        W90427   2.399  15.694   8.402
48417W        W90428  20.869  14.484   8.772
48418W        W90429  14.239   7.064  10.142
48419W        W90430   2.289  13.364   1.268
48420W        W90431  25.019  10.554   9.332
48421W        W90432  24.879  17.504   8.932
48422W        W90433   0.259  13.374   1.048
48423W        W90434  22.459   4.654   2.532
48424W        W90435  24.179   7.664   2.348
48425W        W90436  16.149  20.894   0.388
48426W        W90437   1.609   9.604  15.602
48427W        W90438   1.059  13.914   1.648
48428W        W90439  11.909  20.364   1.598
48429W        W90440  18.879   7.644   8.052
48430W        W90441  25.379   9.344   0.358
48431W        W90442  19.389  25.381  11.302
48432W        W90443   2.389   5.034   9.482
48433W        W90444  10.719  23.801  15.812
48434W        W90445  10.049   3.344   2.922
48435W        W90446  11.089  23.431   9.642
48436W        W90447  23.569  22.711  11.632
48437W        W90448   4.639   5.954   8.422
48438W        W90449  18.119  21.234   0.478
48439W        W90450  17.359   9.284   0.688
48440W        W90451  10.779  21.284  10.612
48441W        W90452   5.829  17.754   3.372
48442W        W90453  17.239  10.334   0.148
48443W        W90454  20.059  21.871  11.172
48444W        W90455   2.349   2.374  10.572
48445W        W90456  20.879  23.261   1.498
48446W        W90457  21.089  10.264  10.512
48447W        W90458  11.219  20.734   2.682
48448W        W90459   6.109   5.354  15.822
48449W        W90460   3.299   0.784   9.422
48450W        W90461  16.029  14.444   2.762
48451W        W90462  22.319  19.594  10.922
48452W        W90463  16.109  10.594   0.068
48453W        W90464  25.479  22.021   9.692
48454W        W90465  11.109   3.094   0.848
48455W        W90466   6.099  19.964   2.612
48456W        W90467   7.219   2.244   8.482
48457W        W90468  25.199   1.974   2.158
48458W        W90469  23.959  11.984   3.212
48459W        W90470  10.199  16.564   1.498
48460W        W90471  18.599  21.234   8.912
48461W        W90472  12.229   8.154   3.882
48462W        W90473   3.759  10.114  10.652
48463W        W90474  19.439   8.354   1.058
48464W        W90475   9.909  24.281   3.822
48465W        W90476  13.369  22.671   3.862
48466W        W90477  18.189   4.694   9.362
48467W        W90478  16.479  18.574   1.078
48468W        W90479  23.939  17.404   0.848
48469W        W90480   9.649  15.814   0.078
48470W        W90481  22.149   3.094   7.942
48471W        W90482  18.599  17.594   8.062
48472W        W90483   3.859   3.414   0.478
48473W        W90484  23.809  24.491  11.862
48474W        W90485   4.929  10.894   2.288
48475W        W90486   5.369   0.174   0.058
48476W        W90487  19.969   1.954   0.048
48477W        W90488  25.149   0.494  11.192
48478W        W90489   1.659   6.074   2.502
48479W        W90490  12.429   8.964   9.812
48480W        W90491  14.429   6.084   0.808
48481W        W90492   0.079  14.614   0.108
48482W        W90493  18.199  22.991   8.992
48483W        W90494  10.559  14.814  10.622
48484W        W90495  13.849  17.084   9.492
48485W        W90496   5.899  19.364  11.182
48486W        W90497  19.359  18.604  15.782
48487W        W90498  15.799  18.364   1.938
48488W        W90499   9.759  23.061   2.048
48489W        W90500  14.779   6.784   1.098
48490W        W90501  20.009  11.894  10.682
48491W        W90502   2.329   5.334   0.548
48492W        W90503  18.949  22.101   9.962
48493W        W90504  22.639  21.721   0.508
48494W        W90505  19.739  20.114   1.588
48495W        W90506  16.599  18.814   2.028
48496W        W90507  15.669  18.854  10.202
48497W        W90508   2.839   9.624   1.328
48498W        W90509   4.359   2.564   9.312
48499W        W90510  12.229   4.054  10.892
48500W        W90511  18.049  19.424   0.098
48501W        W90512  12.689   3.624   3.182
48502W        W90513  18.269   4.414  10.972
48503W        W90514  20.539   4.014   9.062
48504W        W90515  23.299  24.121   1.228
48505W        W90516  11.129  20.924  14.582
48506W        W90517  25.029   2.174  15.202
48507W        W90518  16.049  11.074   0.428
48508W        W90519  18.089  12.144   1.798
48509W        W90520  16.929  15.294   3.482
48510W        W90521  11.409  17.554   4.092
48511W        W90522  21.109   9.624   9.822
48512W        W90523   4.609  13.944  10.362
48513W        W90524  10.429  13.434   3.652
48514W        W90525  20.489  13.194   8.962
48515W        W90526   0.999  18.354   8.522
48516W        W90527  10.779   8.834   3.792
48517W        W90528   7.269  15.224   9.402
48518W        W90529  16.729  24.021   0.918
48519W        W90530   4.309   4.034  11.802
48520W        W90531   1.859   2.724   8.362
48521W        W90532  25.169   1.644   2.742
48522W        W90533   4.169   6.284   1.198
48523W        W90534  23.519   9.174   2.552
48524W        W90535  20.549  11.274   0.038
48525W        W90536  15.949   4.664   9.932
48526W        W90537   4.779   1.604   3.422
48527W        W90538  16.029  16.764  10.802
48528W        W90539  10.059  16.074   3.612
48529W        W90540  21.459  20.794   9.752
48530W        W90541  12.539  15.774   8.502
48531W        W90542  13.999   4.094  10.182
48532W        W90543   6.019   7.304  15.472
48533W        W90544  17.169  17.444  15.612
48534W        W90545  24.459  10.014  10.992
48535W        W90546   6.179  10.974   0.828
48536W        W90547   5.029   3.534   8.302
48537W        W90548  12.859   5.334   4.262
48538W        W90549  17.179  16.644   3.412
48539W        W90550  20.089  15.074   1.538
48540W        W90551   2.849  17.224   0.378
48541W        W90552  19.109  23.731   3.622
48542W        W90553   6.779  17.324   4.762
48543W        W90554   6.399  11.374   1.828
48544W        W90555  22.839  12.534   7.322
48545W        W90556  14.879  21.354   0.458
48546W        W90557  21.689  22.251   2.982
48547W        W90558  18.579   6.054  11.722
48548W        W90559  12.199   3.744  10.492
48549W        W90560  18.249   3.244   8.852
48550W        W90561   0.279  20.034  11.572
48551W        W90562  16.059  13.984   1.108
48552W        W90563   6.209  15.354   7.822
48553W        W90564  10.499  13.604   1.498
48554W        W90565  15.139  21.841   2.572
48555W        W90566  22.829  20.494  11.152
48556W        W90567   6.019  16.754  15.712
48557W        W90568  13.389  23.491  10.322
48558W        W90569  18.909  20.734  10.382
48559W        W90570   6.879   6.104   1.768
48560W        W90571   1.259   6.204  10.142
48561W        W90572   7.019  16.624   1.558
48562W        W90573   5.459  18.684   4.692
48563W        W90574  23.719   6.054  10.902
48564W        W90575   0.309   1.324  11.142
48565W        W90576  17.479  17.754   0.418
48566W        W90577   9.059   1.134   8.862
48567W        W90578   1.069  21.364   3.112
48568W        W90579   5.679  15.954  15.392
48569W        W90580   2.539   2.824  15.492
48570W        W90581  13.459   2.344  15.002
48571W        W90582  10.549  16.324   3.592
48572W        W90583  12.549  10.254   0.368
48573W        W90584   1.199   3.294   3.112
48574W        W90585   8.559  14.254   1.668
48575W        W90586  22.459  23.911   2.258
48576W        W90587   1.249  12.814   7.232
48577W        W90588   9.099  18.744  10.262
48578W        W90589   2.649   0.004   9.582
48579W        W90590  20.999  12.594   3.442
48580W        W90591  22.329  21.044  11.402
48581W        W90592  19.099   9.274   0.958
48582W        W90593   5.649   7.914   6.592
48583W        W90594  24.739  11.034   9.922
48584W        W90595   0.049  25.461   3.052
48585W        W90596  22.059   7.324  12.092
48586W        W90597   0.309  19.414   9.202
48587W        W90598   3.369   1.614   2.772
48588W        W90599  16.409  14.704  14.802
48589W        W90600  16.899  21.551   0.688
48590W        W90601  15.039  11.524   1.028
48591W        W90602   6.179  18.064  15.762
48592W        W90603  17.319  13.544   3.872
48593W        W90604   3.689  12.474  10.962
48594W        W90605  13.839  12.804   2.348
48595W        W90606   9.569  10.874   3.422
48596W        W90607  11.589   4.794   8.312
48597W        W90608  10.789   6.514   0.868
48598W        W90609   4.069  10.024   7.662
48599W        W90610  14.809  18.404   2.852
48600W        W90611  15.279   5.964   0.118
48601W        W90612   7.849   0.104   3.912
48602W        W90613  24.629   5.734   0.278
48603W        W90614   5.879  12.104   3.642
48604W        W90615  10.549  16.914  15.652
48605W        W90616  20.849  22.411   9.392
48606W        W90617  15.999   1.944   2.542
48607W        W90618  22.319  21.421  11.702
48608W        W90619  12.549   9.364   9.332
48609W        W90620  21.269  10.834  10.742
48610W        W90621   6.609   9.524   1.248
48611W        W90622   2.079   6.194   8.242
48612W        W90623   5.399  14.374   2.652
48613W        W90624  24.669   6.244   0.398
48614W        W90625  19.779   6.664  15.752
48615W        W90626  14.329   3.024   0.928
48616W        W90627  19.089   5.714  15.792
48617W        W90628   2.229   9.434  12.032
48618W        W90629  13.029  13.504  14.962
48619W        W90630  11.729   9.254   1.918
48620W        W90631  15.539  24.111   2.652
48621W        W90632   2.399  24.071   8.172
48622W        W90633  24.119  21.324   1.028
48623W        W90634  22.079  22.681   8.182
48624W        W90635   6.989  24.431   3.492
48625W        W90636  18.909   7.424   0.088
48626W        W90637  11.709   2.794   9.472
48627W        W90638   1.569  22.831   7.862
48628W        W90639  15.569  25.091  15.062
48629W        W90640  11.529   2.184   8.712
48630W        W90641  19.799   3.764   9.732
48631W        W90642   3.829  15.104   0.238
48632W        W90643  24.799  25.241  11.432
48633W        W90644  14.109  20.264  10.192
48634W        W90645  15.459   8.394   0.248
48635W        W90646   7.079  15.314   3.802
48636W        W90647   2.629  22.941  11.842
48637W        W90648  19.459   7.204   3.422
48638W        W90649  21.519   7.064   4.012
48639W        W90650  12.279  16.424   2.368
48640W        W90651  23.489   7.934   1.728
48641W        W90652  16.779  13.574   2.098
48642W        W90653  12.139   9.664  11.012
48643W        W90654   9.109  22.361   8.892
48644W        W90655  14.139  20.064   8.442
48645W        W90656   2.119  22.611  11.582
48646W        W90657  12.889  23.521  10.182
48647W        W90658  15.809   4.984   8.632
48648W        W90659  15.149   8.174   3.742
48649W        W90660   6.879  14.724   2.552
48650W        W90661  20.799   7.474   3.142
48651W        W90662  19.519   1.034   9.892
48652W        W90663   3.669   6.034   1.548
48653W        W90664   0.719  21.164   9.002
48654W        W90665   9.549  22.001   3.282
48655W        W90666   2.489   1.064   9.802
48656W        W90667   1.249   3.074   7.512
48657W        W90668  20.399  22.181   8.102
48658W        W90669  12.119  12.114   3.352
48659W        W90670  12.909   0.394   1.528
48660W        W90671  25.309  17.744   9.742
48661W        W90672   4.299  23.031   2.892
48662W        W90673   8.179  25.431   1.668
48663W        W90674  14.329  18.364   8.612
48664W        W90675  13.179   7.194   3.112
48665W        W90676   0.499  22.761   9.732
48666W        W90677  20.589   1.984   2.088
48667W        W90678  15.419  11.424   2.762
48668W        W90679  10.419  12.294   2.922
48669W        W90680  22.259  24.451  11.312
48670W        W90681  17.689  18.824  10.592
48671W        W90682  21.889  11.204   8.912
48672W        W90683   1.959  10.024   1.938
48673W        W90684   0.899  19.474   1.738
48674W        W90685  15.989   2.514  15.642
48675W        W90686  15.799  13.104  15.732
48676W        W90687   7.689  24.321   3.102
48677W        W90688   7.549   4.834  15.842
48678W        W90689   7.849   2.334  10.062
48679W        W90690   5.139   7.404   0.318
48680W        W90691   5.439   6.994   0.128
48681W        W90692   8.259   4.804   9.442
48682W        W90693  20.589   5.434  10.282
48683W        W90694  24.359   9.754  10.062
48684W        W90695  13.559  15.794   2.318
48685W        W90696   5.709  12.734  15.602
48686W        W90697  24.349   9.574   8.002
48687W        W90698   0.109   6.834   8.012
48688W        W90699  24.259   7.664   8.252
48689W        W90700  25.069  25.191  10.002
48690W        W90701   0.659   6.854   9.282
48691W        W90702   5.569   1.674   9.422
48692W        W90703  16.329  17.764  10.222
48693W        W90704  12.279   8.664  15.722
48694W        W90705   8.399   2.694   1.028
48695W        W90706   0.519  20.754  11.002
48696W        W90707   7.329  20.494   2.752
48697W        W90708  12.779  16.214   4.762
48698W        W90709  13.429   2.884   8.302
48699W        W90710  12.259  24.821  15.402
48700W        W90711  13.329   5.134   1.788
48701W        W90712  23.629   5.154   9.682
48702W        W90713  24.979   8.804   7.762
48703W        W90714   0.119  22.141   1.948
48704W        W90715   9.819   2.034   1.718
48705W        W90716  14.919   2.034   2.448
48706W        W90717  11.729  20.654   0.618
48707W        W90718   0.779   2.304   2.318
48708W        W90719  12.599  13.344  15.412
48709W        W90720  14.359  15.804  15.812
48710W        W90721   8.939  23.141  10.222
48711W        W90722  18.629  12.784   7.842
48712W        W90723   7.229   0.974   8.842
48713W        W90724   1.139   2.314   8.692
48714W        W90725  21.249  10.704   2.018
48715W        W90726   8.629  16.774   3.642
48716W        W90727  11.179  24.611  15.872
48717W        W90728  19.619   0.894   1.448
48718W        W90729   7.019   5.414   2.418
48719W        W90730   3.859  24.171   2.248
48720W        W90731  14.449  21.551  10.702
48721W        W90732  13.269   5.644   1.348
48722W        W90733  15.129  18.224   9.302
48723W        W90734   7.509   9.944   3.302
48724W        W90735   1.259  13.694   7.782
48725W        W90736  11.309  12.954  15.742
48726W        W90737   4.369   8.424   6.412
48727W        W90738  23.769   4.504   3.002
48728W        W90739   7.309   3.684   9.302
48729W        W90740  21.589   5.134  10.852
48730W        W90741   5.549  18.484   0.478
48731W        W90742   4.369  18.474   3.032
48732W        W90743  22.109  15.884  10.072
48733W        W90744  19.209  14.674  15.802
48734W        W90745  22.499  18.644   2.158
48735W        W90746  20.129   0.364   0.658
48736W        W90747  21.929   6.174   0.558
48737W        W90748   0.069  19.784  11.222
48738W        W90749  15.769  11.994   4.152
48739W        W90750   8.089  14.844   3.282
48740W        W90751  25.329  14.314  10.152
48741W        W90752  15.059   5.564  10.192
48742W        W90753  12.819  19.834   8.972
48743W        W90754   6.549  19.734   4.152
48744W        W90755   4.189  15.894   0.808
48745W        W90756   8.219   7.504   3.522
48746W        W90757  19.389   6.964  10.632
48747W        W90758   6.049  16.694   8.482
48748W        W90759   0.919  23.451   9.722
48749W        W90760   6.179  11.994   8.022
48750W        W90761  21.379   4.404   8.252
48751W        W90762  24.419  25.341   3.412
48752W        W90763  18.989   7.324  10.522
48753W        W90764  23.189   3.764   2.098
48754W        W90765   6.189  11.984  15.302
48755W        W90766  17.889  19.004  15.742
48756W        W90767   1.259  12.514   8.032
48757W        W90768  11.779   4.794   1.618
48758W        W90769  22.309   4.474  10.442
48759W        W90770  17.389  14.624   4.092
48760W        W90771   7.569  16.994  11.232
48761W        W90772   1.989  21.551   9.922
48762W        W90773  10.079  15.024   9.492
48763W        W90774  22.979   2.514  10.802
48764W        W90775  23.269   2.574   7.582
48765W        W90776  18.269  13.034   8.682
48766W        W90777  18.569   3.544   3.552
48767W        W90778   7.109   7.554  15.342
48768W        W90779  22.529  15.184   9.452
48769W        W90780  21.009  22.431   1.958
48770W        W90781   8.819   5.984   0.338
48771W        W90782   9.749  15.374   0.798
48772W        W90783  19.469  16.454   9.482
48773W        W90784  10.179   2.554   8.692
48774W        W90785   3.379   8.504   8.662
48775W        W90786  16.249  14.664   1.808
48776W        W90787  16.839  10.954  15.772
48777W        W90788  13.829  16.294  10.962
48778W        W90789   5.769  14.764   2.812
48779W        W90790  12.569  17.844  15.292
48780W        W90791  11.109  22.361  15.662
48781W        W90792   5.279  13.534  10.162
48782W        W90793   3.469   4.354   7.962
48783W        W90794  25.199  11.564   7.582
48784W        W90795  11.039   4.104   9.642
48785W        W90796   7.309   5.774   9.192
48786W        W90797   4.579  22.741   1.238
48787W        W90798   9.189   7.854   2.852
48788W        W90799  21.169  13.314   3.062
48789W        W90800  21.519  13.004   8.982
48790W        W90801   0.549  17.004   1.168
48791W        W90802   0.419   3.484   9.382
48792W        W90803  25.439  11.734   9.712
48793W        W90804  17.249   2.174   8.732
48794W        W90805   4.069  20.064   0.568
48795W        W90806  17.219   1.534  10.132
48796W        W90807  21.419  12.914   7.962
48797W        W90808   7.989   7.524   2.058
48798W        W90809   5.429  18.114  11.052
48799W        W90810  21.159  15.254   8.362
48800W        W90811  13.629   0.754  10.062
48801W        W90812   7.469  18.774   9.212
48802W        W90813  20.299   9.414   3.152
48803W        W90814  10.829  11.404  15.552
48804W        W90815   4.809   4.934   9.422
48805W        W90816   7.339   2.514   9.122
48806W        W90817  18.179  14.854   8.562
48807W        W90818  12.959  16.474  10.042
48808W        W90819  16.229  18.134   1.098
48809W        W90820   1.919   8.914   6.832
48810W        W90821  14.439   6.164   0.008
48811W        W90822  21.429  11.614   0.228
48812W        W90823  18.969  22.541   1.318
48813W        W90824   6.679   0.134   9.602
48814W        W90825  22.959   2.864   2.248
48815W        W90826  13.799  18.184   0.018
48816W        W90827  23.669  21.511  11.532
48817W        W90828  18.629   2.324   0.788
48818W        W90829  15.619  23.311   3.822
48819W        W90830  10.679   7.954   8.792
48820W        W90831   8.409  13.314   1.878
48821W        W90832  18.239   6.534   3.352
48822W        W90833   2.189   7.564   8.912
48823W        W90834   5.489  13.934   9.752
48824W        W90835  21.859  17.114   9.052
48825W        W90836   4.519  12.734   9.052
48826W        W90837  14.819  21.621   4.612
48827W        W90838   4.249   8.304   8.502
48828W        W90839   6.219   6.694   9.592
48829W        W90840  12.589  16.264  11.072
48830W        W90841  16.979   3.194   1.208
48831W        W90842  25.019  18.774  10.142
48832W        W90843   0.959  13.814   9.872
48833W        W90844  16.739   0.264   2.922
48834W        W90845  18.819   7.974   1.488
48835W        W90846  23.529   3.024   1.818
48836W        W90847  23.289  12.254  15.832
48837W        W90848  17.239  22.261  10.622
48838W        W90849   3.019   6.144   9.292
48839W        W90850   1.599   9.344   9.702
48840W        W90851  18.519  16.244   7.142
48841W        W90852  20.389  20.374  10.912
48842W        W90853  14.149   6.884   8.812
48843W        W90854  18.979   3.494   3.242
48844W        W90855   0.299  13.704  12.082
48845W        W90856  24.039   5.424   2.532
48846W        W90857  13.859  20.764  10.302
48847W        W90858   9.979   1.794   9.462
48848W        W90859   7.889  11.054   1.588
48849W        W90860  22.269  21.401   8.202
48850W        W90861  22.719   5.084   1.628
48851W        W90862  24.319   5.594   2.048
48852W        W90863  21.889  15.864  10.952
48853W        W90864   8.559  15.674   2.562
48854W        W90865  18.319  18.084   1.528
48855W        W90866  23.949   6.384   7.752
48856W        W90867  16.109   4.384   7.592
48857W        W90868   0.129  10.094   1.068
48858W        W90869   5.569  14.814   4.222
48859W        W90870  13.369   3.584  15.132
48860W        W90871   6.799  18.774   2.018
48861W        W90872  18.099  20.694   0.438
48862W        W90873  22.379   8.234   9.802
48863W        W90874  16.589  22.961  11.152
48864W        W90875  21.839   3.154   8.642
48865W        W90876  12.089   0.424   1.918
48866W        W90877  11.789  12.554   1.868
48867W        W90878   9.749   6.534   8.312
48868W        W90879  14.399   8.684   3.742
48869W        W90880  20.179  20.494   9.042
48870W        W90881  17.369   9.254  15.612
48871W        W90882  24.229   0.784   8.192
48872W        W90883  20.409   2.394   0.588
48873W        W90884   3.189  16.424   7.562
48874W        W90885   8.459  18.634   4.542
48875W        W90886  24.559   1.034   8.892
48876W        W90887  23.619  15.364   0.128
48877W        W90888   7.929  10.934   0.278
48878W        W90889   9.989  10.364   8.592
48879W        W90890   9.799  22.411  15.532
48880W        W90891   2.279  24.341   2.552
48881W        W90892  19.099  18.714   8.712
48882W        W90893   3.149   2.534   8.662
48883W        W90894  21.859   7.824  11.302
48884W        W90895   5.279  24.881   3.192
48885W        W90896  19.229  15.404   0.108
48886W        W90897  16.989   1.944   1.278
48887W        W90898   5.099  20.264   9.632
48888W        W90899  23.939  15.534   2.922
48889W        W90900   6.289   9.954  10.362
48890W        W90901   9.039   7.444   1.158
48891W        W90902  12.319   2.764   4.562
48892W        W90903  12.269  15.294   2.028
48893W        W90904  21.839  18.814   9.482
48894W        W90905   3.919   2.224   9.822
48895W        W90906  11.099  24.741   1.288
48896W        W90907  18.709   4.154  15.772
48897W        W90908  17.169  11.974   4.022
48898W        W90909  23.949   4.264  10.082
48899W        W90910   1.689  14.484   7.912
48900W        W90911  21.219  19.644   7.542
48901W        W90912  10.839   7.504   2.388
48902W        W90913   6.559  11.624   8.202
48903W        W90914   7.259   9.754  15.582
48904W        W90915   0.599  19.714  11.372
48905W        W90916   2.859   2.734   2.742
48906W        W90917  13.389   9.554  10.362
48907W        W90918   0.849   7.634   1.728
48908W        W90919   6.999  23.071   0.168
48909W        W90920   8.279  21.531   1.798
48910W        W90921   1.279  14.774   1.858
48911W        W90922  18.479  13.424   0.698
48912W        W90923  23.599  23.691   1.028
48913W        W90924  24.259   4.004  11.112
48914W        W90925  13.849   8.214  14.882
48915W        W90926   6.599  16.674  15.672
48916W        W90927   0.359  20.234   1.438
48917W        W90928   7.319   8.224   2.592
48918W        W90929   6.749   3.714   0.078
48919W        W90930  22.839   7.064  12.122
48920W        W90931  17.609   7.874   9.372
48921W        W90932   7.949  13.674   1.238
48922W        W90933   0.339  24.881   7.822
48923W        W90934  23.339   6.724   8.462
48924W        W90935   5.659  22.891   4.112
48925W        W90936   1.729   1.604   6.762
48926W        W90937  22.929   0.644   7.902
48927W        W90938   3.179   1.094  10.882
48928W        W90939  13.659   4.864  15.342
48929W        W90940   7.319  11.914  15.042
48930W        W90941  16.439   2.904   8.102
48931W        W90942   9.599  20.104  15.642
48932W        W90943  18.799  24.431  11.922
48933W        W90944  21.059  23.821  12.222
48934W        W90945  14.529  10.194   3.992
48935W        W90946  14.509  17.184   0.408
48936W        W90947   2.939   1.544   1.048
48937W        W90948   7.459   1.364   3.422
48938W        W90949  13.069  11.544  15.322
48939W        W90950   4.259   0.294   3.452
48940W        W90951   3.769   2.894   0.538
48941W        W90952   5.609  25.191   9.262
48942W        W90953  14.729   1.804   3.052
48943W        W90954  12.359  25.001   3.832
48944W        W90955   9.439  17.474   0.908
48945W        W90956  10.679  12.774   0.738
48946W        W90957  18.199   1.434   0.288
48947W        W90958   7.629  22.781   0.118
48948W        W90959  23.349  14.234  12.422
48949W        W90960   9.479  19.144   1.648
48950W        W90961  10.599  11.124  14.282
48951W        W90962   4.429  12.854   8.562
48952W        W90963  18.009   3.894  11.282
48953W        W90964  11.269   2.764   3.352
48954W        W90965  20.369  13.444   9.652
48955W        W90966  15.729  21.591   3.102
48956W        W90967   8.269  15.214  10.752
48957W        W90968  17.389   7.074   0.928
48958W        W90969  23.699   2.104   2.842
48959W        W90970   4.889  24.981   8.102
48960W        W90971  22.109  10.304   8.462
48961W        W90972   2.879   6.364   0.298
48962W        W90973   7.669  18.114  11.172
48963W        W90974   0.619  14.414   8.832
48964W        W90975  10.129   0.534   9.892
48965W        W90976   2.959  17.444   8.972
48966W        W90977  20.159  16.384   0.588
48967W        W90978  10.289  25.091  10.772
48968W        W90979  11.239  15.194   3.582
48969W        W90980  14.469  18.244  10.682
48970W        W90981   6.859  23.771  11.422
48971W        W90982  11.279  14.974   0.518
48972W        W90983  10.319  20.454   2.298
48973W        W90984  17.399  10.714   9.622
48974W        W90985  19.809  24.071  12.592
48975W        W90986   5.699  22.301   9.162
48976W        W90987   3.499  21.014   8.642
48977W        W90988  13.619   0.554   1.458
48978W        W90989  21.719   5.644   8.142
48979W        W90990   1.109  15.234   9.512
48980W        W90991  13.979  22.471   2.478
48981W        W90992   9.329  19.374   1.238
48982W        W90993  24.969   8.604  10.562
48983W        W90994   2.589  24.361   1.828
48984W        W90995  10.209  17.824   3.042
48985W        W90996  22.119  11.764   1.238
48986W        W90997  17.259  20.034   9.502
48987W        W90998   3.029  16.854   2.982
48988W        W90999   2.219  23.651   4.192
48989W        W91000  17.069  21.841  10.722
48990W        W91001  25.509  24.671  11.272
48991W        W91002  13.049   9.694   9.992
48992W        W91003  25.159  10.214   8.942
48993W        W91004   7.399  12.984   8.912
48994W        W91005  24.929  16.294   3.522
48995W        W91006   1.999  24.501   2.188
48996W        W91007  20.099  21.451  15.502
48997W        W91008   4.559  10.704  15.752
48998W        W91009  10.199   6.874   1.668
48999W        W91010   4.209   1.524   0.268
49000W        W91011  15.159   9.024   0.078
49001W        W91012  24.069   6.974  10.392
49002W        W91013  15.839  17.724   3.072
49003W        W91014  10.669   7.254  15.192
49004W        W91015   7.769   5.704   3.292
49005W        W91016  23.979   2.794   2.952
49006W        W91017   7.249  14.414  14.762
49007W        W91018  19.569  15.864  10.242
49008W        W91019   6.299  21.204   0.658
49009W        W91020  12.849   6.574   0.448
49010W        W91021   5.389   5.344   3.992
49011W        W91022  18.659  22.441  10.252
49012W        W91023  15.619  10.864   2.772
49013W        W91024  21.329   9.214   8.632
49014W        W91025   7.019   4.864   2.642
49015W        W91026  19.509   5.994   4.222
49016W        W91027   2.389   0.814   2.068
49017W        W91028   4.339  19.904  11.512
49018W        W91029   1.989   4.994   0.588
49019W        W91030  23.219   7.714  10.272
49020W        W91031  11.729  18.084  10.212
49021W        W91032  12.889   5.744   3.062
49022W        W91033   1.939   1.734   0.498
49023W        W91034  11.899   0.824   1.828
49024W        W91035  16.249  25.201   0.728
49025W        W91036  11.789   4.404   3.562
49026W        W91037  10.629  19.954   1.098
49027W        W91038  20.089   6.894   9.272
49028W        W91039  21.449   8.534  10.552
49029W        W91040  18.699  21.531  11.462
49030W        W91041  19.619  17.724   7.752
49031W        W91042   9.959  15.524   9.622
49032W        W91043  15.099  13.364   1.958
49033W        W91044   4.059  15.984   3.282
49034W        W91045   6.629  23.221   3.482
49035W        W91046  14.749   3.974  11.582
49036W        W91047  24.849  24.451  10.412
49037W        W91048  10.959   3.484  15.632
49038W        W91049  21.259   4.334   1.918
49039W        W91050  24.569  16.934   2.532
49040W        W91051  19.559   0.164  10.432
49041W        W91052   5.619   2.134  11.132
49042W        W91053   6.769  12.624   2.802
49043W        W91054  21.629  23.751   8.172
49044W        W91055   4.779  22.591   7.802
49045W        W91056   4.009  15.974   9.142
49046W        W91057   8.549  15.504  15.802
49047W        W91058  13.179   1.134   9.362
49048W        W91059   3.599   1.084  11.312
49049W        W91060   7.699  17.764   3.712
49050W        W91061  14.309  21.451   3.852
49051W        W91062  10.439  17.244   3.832
49052W        W91063   0.829   5.594   0.158
49053W        W91064  13.749   3.774   9.782
49054W        W91065   9.559  19.904   2.842
49055W        W91066  14.519  15.924   0.858
49056W        W91067  17.959   7.464   8.942
49057W        W91068   5.469  22.641   3.462
49058W        W91069   2.559  13.304   3.792
49059W        W91070  17.969   1.264   8.322
49060W        W91071   2.359  19.334   9.282
49061W        W91072  15.679   4.604   8.952
49062W        W91073  17.859  19.934  11.282
49063W        W91074  20.579  22.301   7.612
49064W        W91075   2.939   5.454   1.958
49065W        W91076  21.639  14.384   3.372
49066W        W91077  12.529  22.091  10.152
49067W        W91078   6.419   3.614   9.182
49068W        W91079  14.729  22.091   3.682
49069W        W91080   8.659  12.034   3.122
49070W        W91081  12.269  15.374   5.032
49071W        W91082   6.379  11.044   3.332
49072W        W91083   2.379  11.554   9.652
49073W        W91084   1.669  19.204  10.892
49074W        W91085   4.099  16.964   0.998
49075W        W91086  20.039   9.274   3.562
49076W        W91087   8.899  15.634   9.292
49077W        W91088  13.939  17.944  15.082
49078W        W91089  19.089   0.664   2.762
49079W        W91090   5.079   5.444  10.332
49080W        W91091  19.549   8.624   3.322
49081W        W91092   5.439   5.144   1.958
49082W        W91093  11.469   5.634   0.448
49083W        W91094  13.059   8.474  15.272
49084W        W91095  20.939   6.614  10.642
49085W        W91096  14.999  20.244   4.652
49086W        W91097  22.409  13.024  15.642
49087W        W91098  21.449  16.754   7.912
49088W        W91099   8.819  13.344   3.552
49089W        W91100  22.569  21.791  12.412
49090W        W91101   8.049  18.914   3.152
49091W        W91102   2.649   4.044   0.378
49092ION    NA+91103  16.879   6.144   0.428
49093ION    NA+91104  15.729   8.784   8.202
49094ION    NA+91105   7.139  12.314  11.172
49095ION    NA+91106   0.779   8.504  15.012
49096ION    NA+91107   9.219  20.804   8.432
49097ION    NA+91108  25.539  24.671  15.692
49098ION    NA+91109  13.989  16.284   0.598
49099ION    NA+91110   5.029   4.934   3.662
49100ION    NA+91111  12.089   5.324  14.512
49101ION    NA+91112  23.389  17.254   3.442
49102ION    NA+91113   7.079  17.134   4.462
49103ION    NA+91114   2.089  16.384   3.232
49104ION    NA+91115   4.429  23.381   2.552
49105ION    NA+91116   2.719   7.714   9.092
49106ION    NA+91117   2.449  12.014   9.892
49107ION    NA+91118  13.499  19.294   1.048
49108ION    NA+91119   5.289  12.464  15.842
49109ION    NA+91120  11.079  24.531   0.818
49110ION    NA+91121  15.679  24.211  15.372
49111ION    NA+91122   9.409   0.124   7.712
49112ION    NA+91123  12.469   4.454   1.188
49113ION    NA+91124  25.249   5.524  11.372
49114ION    NA+91125  21.489  14.084   9.942
49115ION    NA+91126   6.249  15.354  15.042
49116ION    NA+91127  13.589  13.634   5.702
49117ION    NA+91128   5.279   1.744   8.632
49118ION    NA+91129  10.789  11.654   8.812
49119ION    NA+91130  21.389  18.664   9.202
49120ION    NA+91131  21.129   1.564   3.232
49121ION    NA+91132   2.689  17.144   1.928
49122ION    NA+91133   8.209   9.664   3.862
49123ION    NA+91134  15.099   2.624   2.672
49124ION    NA+91135  10.309   0.004   4.282
49125ION    NA+91136  20.779  21.831   3.672
49126ION    NA+91137  11.639   0.514  14.562
49127ION    NA+91138  22.409  17.314   7.312
49128ION    NA+91139  13.159  19.014   9.312
49129ION    NA+91140   2.379   5.314   3.702
49130ION    NA+91141   7.259   0.184   1.088
49131ION    NA+91142   5.569   9.424  14.882
49132ION    NA+91143  19.549  12.374  11.412
49133ION    NA+91144   8.879   9.224  14.192
49134ION    NA+91145  13.499  14.334   9.522
49135ION    NA+91146  17.569  17.194  11.932
49136ION    NA+91147   2.309  19.234   9.742
49137ION    NA+91148  14.159  13.254  10.162
49138ION    NA+91149  13.349  21.791   2.812
49139ION    NA+91150   6.259  17.274   2.348
49140ION    NA+91151  10.299  19.504  14.922
49141ION    NA+91152  12.069   1.814   0.168
49142ION    NA+91153   0.639  11.674  11.462
49143ION    NA+91154   8.489  21.741   0.688
49144ION    NA+91155   4.089  22.131  15.642
49145ION    NA+91156  21.019  11.464   7.452
49146ION    NA+91157  10.229  20.724   3.442
49147ION    NA+91158   5.289  12.944   2.932
49148ION    NA+91159  21.579  20.934  15.872
49149ION    NA+91160  23.659   4.654   2.498
49150ION    NA+91161   7.429   9.914   8.232
49151ION    NA+91162  23.089  11.414  10.002
49152ION    NA+91163  21.139  25.071   9.332
49153ION    NA+91164   1.939  18.924   7.522
49154ION    NA+91165  22.389   4.524  11.842
49155ION    NA+91166  22.159   6.114   0.088
49156ION    NA+91167  14.269  17.274   4.552
49157ION    NA+91168  19.809   2.674   2.802
49158ION    NA+91169  13.159  20.984   3.982
49159ION    NA+91170  21.139   0.554   0.008
49160ION    NA+91171   3.799  24.531   0.958
49161ION    NA+91172   2.509  24.651   3.942
49162ION    NA+91173  20.909  14.714   3.962
49163ION    NA+91174  14.799  13.574   2.378
49164ION    NA+91175  19.749  13.984   4.132
49165ION    NA+91176  10.939  18.564   0.498
49166ION    NA+91177  20.149   2.654  11.892
49167ION    NA+91178   3.669   4.644   0.278
49168ION    NA+91179  17.979  16.564   0.858
49169ION    NA+91180   1.009  25.391  12.252
49170ION    NA+91181  23.599   9.704  10.792
49171ION    NA+91182  16.709  24.641   3.812
49172ION    NA+91183  20.989   5.904   7.522
49173ION    NA+91184  11.499  20.674  14.762
49174ION    NA+91185  23.969   3.114   1.538
49175ION    NA+91186   4.719  18.084   3.252
49176ION    NA+91187  21.129  18.414   7.642
49177ION    NA+91188   1.469  12.564  10.332
49178ION    NA+91189  10.279  19.574   1.308
49179ION    NA+91190   2.469  14.684   8.822
49180ION    NA+91191   4.059  22.511   9.782
49181ION    NA+91192   3.059   3.324   1.398
49182ION    NA+91193   0.649  21.721   9.792
49183ION    NA+91194  16.359  22.521  15.372
49184ION    NA+91195  13.829  19.134   8.162
49185ION    NA+91196   0.041  15.594   9.732
49186ION    NA+91197  25.569  18.704  12.282
49187ION    NA+91198  21.109   9.874   7.122
49188ION    NA+91199  11.799   5.214   0.398
49189ION    NA+91200   5.959   7.694   1.618
49190ION    NA+91201  11.679   8.214  15.842
49191ION    NA+91202   4.299   5.124   8.652
49192ION    NA+91203  24.349   3.724   3.292
49193ION    NA+91204   8.989   4.154  14.572
49194ION    NA+91205   9.639  15.004   0.468
49195ION    NA+91206  23.009  24.901   2.502
49196ION    NA+91207  22.839   7.864  11.352
49197ION    NA+91208  12.449   9.034   1.498
49198ION    NA+91209   3.419   8.864   2.792
49199ION    NA+91210  24.179   7.824  11.892
49200ION    NA+91211  22.679  25.201   1.458
49201ION    NA+91212   4.049   9.364  15.332
49202ION    NA+91213  13.479  10.414   4.852
49203ION    NA+91214  20.719  19.324   8.872
49204ION    NA+91215   0.051  13.174  15.812
49205ION    NA+91216   7.679  25.561   7.672
49206ION    NA+91217  22.919  21.501   3.782
49207ION    NA+91218   6.199  12.454   7.252
49208ION    NA+91219  20.339   4.434  15.742
49209ION    NA+91220   2.729   7.384   7.842
49210ION    NA+91221  23.129   6.284   9.672
49211ION    NA+91222   6.439   6.654   7.482
49212ION    NA+91223  25.559  12.874   7.682
49213ION    NA+91224   9.869   1.624  10.902
49214ION    NA+91225  14.679  23.211  12.122
49215ION    NA+91226   9.529  15.384  10.482
49216ION    NA+91227  16.149  11.284  15.292
49217ION    NA+91228  17.819  10.684  14.852
49218ION    NA+91229  25.469  18.924   9.352
49219ION    NA+91230  11.239   9.254  10.822
49220ION    NA+91231  25.549  24.211  11.422
49221ION    NA+91232   2.729  17.334   3.592
49222ION    NA+91233  12.079  12.604   9.962
49223ION    NA+91234  19.019   7.674  11.032
49224ION    NA+91235  15.679   0.244   7.682
49225ION    NA+91236  10.609   0.234  10.442
49226ION    NA+91237   8.379  18.294   8.092
49227ION    NA+91238  24.659  11.064   8.892
49228ION    NA+91239  15.659  18.384   4.222
49229ION    NA+91240   5.689  18.364  10.052
49230ION    NA+91241   0.519   7.074   1.958
49231ION    NA+91242   6.509  19.164   8.072
49232ION    NA+91243   0.969  15.504   7.592
49233ION    NA+91244  22.009   0.314   3.772
49234ION    NA+91245  16.539  24.381   8.692
49235ION    NA+91246   1.869   0.664   8.112
49236ION    NA+91247  22.179  17.614   2.138
49237ION    NA+91248   8.189  11.484   7.702
49238ION    NA+91249  12.489  23.931   2.418
49239ION    NA+91250  21.999  16.864   3.332
49240ION    NA+91251  10.179  12.124   9.192
49241ION    NA+91252  12.719  15.434   2.268
49242ION    NA+91253  21.559   2.344  15.522
49243ION    NA+91254   6.359  16.464   0.758
49244ION    NA+91255  11.499  23.731   1.318
49245ION    NA+91256  15.159   4.624   9.962
49246ION    NA+91257  18.009  25.371   7.712
49247ION    NA+91258   7.749  16.694   1.068
49248ION    NA+91259  24.269   8.964   9.842
49249ION    NA+91260   9.429   3.644   3.942
49250ION    NA+91261   0.259  22.421   9.042
49251ION    NA+91262  10.989   5.064  10.672
49252ION    NA+91263   5.439   4.654   7.192
49253ION    NA+91264  16.499  16.454   3.992
49254ION    NA+91265  12.039   8.884  14.392
49255ION    NA+91266  25.039   7.964   3.142
49256ION    NA+91267  11.259   5.144   2.288
49257ION    NA+91268  11.199  11.284   5.162
49258ION    NA+91269   8.959  15.684   0.718
49259ION    NA+91270  12.269  17.504   4.552
49260ION    NA+91271   3.239  20.854  11.202
49261ION    NA+91272  12.089  21.791   2.822
49262ION    NA+91273   8.399   9.814   8.152
49263ION    NA+91274   6.749   3.164   9.812
49264ION    NA+91275   7.589  15.644   1.498
49265ION    NA+91276  15.599  12.764   0.938
49266ION    NA+91277  16.069  15.844  14.872
49267ION    NA+91278   3.759  21.751   7.732
49268ION    NA+91279  13.159  21.084   1.468
49269ION    NA+91280   5.029  19.774   8.762
49270ION    NA+91281  22.629   9.754  11.582
49271ION    NA+91282  13.089  22.151  15.062
49272ION    NA+91283   6.789  21.711  11.832
49273ION    NA+91284   4.239   2.264   0.698
49274ION    NA+91285   2.589  11.274   8.792
49275ION    NA+91286   8.359  24.441  15.842
49276ION    NA+91287   6.289   3.484   7.542
49277ION    NA+91288   4.709   6.424  11.452
49278ION    NA+91289  20.869   9.184  15.262
49279ION    NA+91290  14.289  19.184   1.958
49280ION    NA+91291  17.259  10.034   3.872
49281ION    NA+91292   2.479  12.274   7.072
49282ION    NA+91293  21.219   8.774   8.412
49283ION    NA+91294   3.059   2.074   3.692
49284ION    NA+91295   9.439  23.551   4.242
49285ION    NA+91296  16.229   1.814  10.112
49286ION    NA+91297   8.609  14.404   8.552
49287ION    NA+91298  25.399  20.724   7.462
49288ION    NA+91299  10.129  22.181  10.462
49289ION    NA+91300  24.809   8.554  11.882
49290ION    NA+91301  17.639  12.094   3.802
49291ION    NA+91302   9.899  18.244   0.998
49292ION    NA+91303   6.529   4.014   3.712
49293ION    NA+91304   2.199  15.044   3.632
49294ION    NA+91305   8.719   7.114   9.142
49295ION    NA+91306   0.559   3.464   2.912
49296ION    NA+91307  21.779   1.774   3.672
49297ION    NA+91308  17.959   9.674   1.408
49298ION    NA+91309  21.149   7.264  15.772
49299ION    NA+91310   3.799   2.924  11.442
49300ION    NA+91311  25.099  14.144  11.732
49301ION    NA+91312  23.629   6.514   3.722
49302ION    NA+91313  17.039   2.964   4.082
49303ION    NA+91314  18.519  23.141   3.952
49304ION    NA+91315   1.419  11.714  15.162
49305ION    NA+91316  10.079   0.074   0.728
49306ION    NA+91317  23.619  10.314   6.982
49307ION    NA+91318  16.369  15.564   8.202
49308ION    NA+91319   0.209   2.414   0.898
49309ION    NA+91320   7.409  21.591   4.342
49310ION    NA+91321   5.929   2.424  14.912
49311ION    NA+91322  18.089  20.244  11.952
49312ION    NA+91323  18.339  12.584   8.432
49313ION    NA+91324  15.919  21.234   3.972
49314ION    NA+91325   0.969   0.864  15.692
49315ION    NA+91326  13.849  24.851   0.778
49316ION    NA+91327   1.199  21.721   8.862
49317ION    NA+91328   5.089   7.904   1.848
49318ION    NA+91329   1.019   1.144   0.868
49319ION    NA+91330   2.209  24.211   0.828
49320ION    NA+91331  20.079  13.464   3.002
49321ION    NA+91332  17.539   0.644   3.932
49322ION    NA+91333  16.029   6.254   0.118
49323ION    NA+91334   3.749   3.904   1.908
49324ION    NA+91335   4.849  13.474   3.752
49325ION    NA+91336  14.419   7.024   3.892
49326ION    NA+91337  16.949   5.784   1.508
49327ION    NA+91338  13.019  11.414   5.292
49328ION    NA+91339  16.379  11.704  14.382
49329ION    NA+91340   3.429  22.961  10.652
49330ION    NA+91341  16.309  20.394   9.122
49331ION    NA+91342  14.759  23.061   0.728
49332ION    NA+91343   9.969  16.414   0.268
49333ION    NA+91344   1.639   9.244   9.202
49334ION    NA+91345  19.039  16.384  15.482
49335ION    NA+91346   9.599  11.984   0.118
49336ION    NA+91347  11.629  21.591   8.692
49337ION    NA+91348   5.739  24.381   3.252
49338ION    NA+91349  20.949  17.404   3.592
49339ION    NA+91350   5.319  15.344   7.632
49340ION    NA+91351   8.759  14.744   0.478
49341ION    NA+91352  12.569  23.961  15.242
49342ION    NA+91353  15.919  10.154   0.368
49343ION    NA+91354  22.109  17.284  12.142
49344ION    NA+91355  21.129  11.684  15.242
49345ION    NA+91356  10.529   2.564   7.722
49346ION    NA+91357   5.139  24.431  10.292
49347ION    NA+91358  15.259  20.424  11.732
49348ION    NA+91359   9.219  25.091  10.942
49349ION    NA+91360   7.979  21.641   1.388
49350ION    NA+91361   7.929  17.294  11.432
49351ION    NA+91362   3.829   0.314  10.232
49352ION    NA+91363  21.819  25.441   7.382
49353ION    NA+91364  17.799  12.894   2.208
49354ION    NA+91365  19.879  14.284   7.442
49355ION    NA+91366  14.169  15.484   8.602
49356ION    NA+91367  12.519  15.914   3.022
49357ION    NA+91368  13.709  11.054   8.922
49358ION    NA+91369  13.479   3.384   7.972
49359ION    NA+91370   4.829  14.674   2.218
49360ION    NA+91371  18.809   8.874  10.612
49361ION    NA+91372  13.399  17.444   3.612
49362ION    NA+91373   4.269   0.334  15.192
49363ION    NA+91374  15.889   4.554  15.012
49364ION    NA+91375  17.619   3.604   0.108
49365ION    NA+91376  12.339   5.394   1.068
49366ION    NA+91377  15.429  14.354   9.852
49367ION    NA+91378   7.419  18.094   8.112
49368ION    NA+91379  14.669   9.164   8.132
49369ION    NA+91380  18.859  11.414  14.942
49370ION    NA+91381   4.889   5.584   1.468
49371ION    NA+91382   3.549   6.584   6.482
49372ION    NA+91383  13.269  11.264   9.862
49373ION    NA+91384   4.189  17.004   1.778
49374ION    NA+91385   1.199  14.314   1.358
49375ION    NA+91386  12.729   2.054  14.322
49376ION    NA+91387  16.629  13.834   3.052
49377ION    NA+91388  13.749   1.554   4.052
49378ION    NA+91389  20.839  19.704   3.742
49379ION    NA+91390  13.579   9.204   8.332
49380ION    NA+91391  20.369  25.231  12.482
49381ION    NA+91392   6.969   6.054  10.402
49382ION    NA+91393  21.609   4.974   8.672
49383ION    NA+91394  24.659  15.354   7.382
49384ION    NA+91395   3.389  16.474   2.562
49385ION    NA+91396  14.129  24.411  11.532
49386ION    NA+91397  12.269  11.544   0.488
49387ION    NA+91398  21.739   1.064  11.712
49388ION    NA+91399  10.269   7.174   4.182
49389ION    NA+91400   1.239   8.374   6.572
49390ION    NA+91401  14.409  12.074   4.982
49391ION    NA+91402   0.539  24.071   8.922
49392ION    NA+91403   9.659   4.824   7.712
49393ION    NA+91404  15.659  14.834   0.008
49394ION    NA+91405  19.029   2.844   2.792
49395ION    NA+91406   4.239  23.351   3.672
49396ION    NA+91407   2.439  18.484   2.148
49397ION    NA+91408   1.519  17.914  11.672
49398ION    NA+91409   2.679  17.034  10.852
49399ION    NA+91410   6.079   3.864   8.492
49400ION    NA+91411   1.889   3.454  15.072
49401ION    NA+91412  24.129  13.124  15.342
49402ION    NA+91413  19.649   8.864   0.858
49403ION    NA+91414   3.249   9.034   0.878
49404ION    NA+91415  21.389   3.944   3.702
49405ION    NA+91416  15.729  23.421   8.312
49406ION    NA+91417  11.239  10.784   0.848
49407ION    NA+91418  10.359  12.414  14.252
49408ION    NA+91419  20.189   7.054   2.532
49409ION    NA+91420  14.699  11.924   9.142
49410ION    NA+91421   5.899  13.304  11.412
49411ION    NA+91422   1.249   9.974   3.312
49412ION    NA+91423   9.029  19.914   4.442
49413ION    NA+91424   6.419  21.174   8.282
49414ION    NA+91425  18.129  20.784  12.072
49415ION    NA+91426  20.039  17.854   7.092
49416ION    NA+91427   5.169  17.824  10.252
49417ION    NA+91428  15.349  13.064   8.922
49418ION    NA+91429  22.939   3.204   0.598
49419ION    NA+91430  21.079   2.804  10.672
49420ION    NA+91431   5.789  19.054  10.802
49421ION    NA+91432  22.099  15.334   0.458
49422ION    NA+91433  16.069   2.284   0.468
49423ION    NA+91434   1.669  10.764   7.292
49424ION    NA+91435  15.239  10.614   1.008
49425ION    NA+91436  10.469  23.571   4.722
49426ION    NA+91437  18.709   6.644   2.822
49427ION    NA+91438  15.729  24.841   9.082
49428ION    NA+91439   5.809  23.431   1.898
49429ION    NA+91440  19.669  17.784   3.782
49430ION    NA+91441   8.229   6.134   1.438
49431ION    NA+91442  19.529   0.654  11.052
49432ION    NA+91443   8.109   6.734   2.902
49433ION    NA+91444   7.629  11.714   8.272
49434ION    NA+91445   5.769  17.064  11.472
49435ION    NA+91446  18.889  11.604   3.772
49436ION    NA+91447  12.889  14.604   0.328
49437ION    NA+91448   5.109   9.654   9.152
49438ION    NA+91449  20.589  11.544  11.922
49439ION    NA+91450  16.369  16.964   9.762
49440ION    NA+91451  25.469  19.614   9.112
49441ION    NA+91452   3.109  14.994   2.418
49442ION    NA+91453   9.359  24.071   0.548
49443ION    NA+91454  22.049   0.734   1.948
49444ION    NA+91455  23.059  18.584   7.222
49445ION    NA+91456   9.869  11.794   9.972
49446ION    NA+91457  23.529  23.961  10.072
49447ION    NA+91458   5.479  15.344   1.458
49448ION    NA+91459   6.909  23.831   4.242
49449ION    NA+91460  21.099   6.594   1.658
49450ION    NA+91461   4.749  11.424   0.228
49451ION    NA+91462  14.599  24.351   2.512
49452ION    NA+91463   3.669  23.841  15.542
49453ION    NA+91464  20.689  10.964   3.592
49454ION    NA+91465  16.479  24.561  15.872
49455ION    NA+91466  23.319  16.264   8.042
49456ION    NA+91467   9.109  16.894   3.842
49457ION    NA+91468   0.299  24.511  10.642
49458ION    NA+91469  22.229  15.114  15.782
49459ION    NA+91470   8.359   7.394   1.268
49460ION    NA+91471  17.669   1.624  10.332
49461ION    NA+91472   6.649  20.314   9.112
49462ION    NA+91473  11.059   2.724  15.762
49463ION    NA+91474  19.089   1.554   3.022
49464ION    NA+91475  12.439  19.654   0.488
49465ION    NA+91476  21.789  10.164   3.452
49466ION    NA+91477  23.159  20.934   7.712
49467ION    NA+91478  22.759  13.924   3.722
49468ION    NA+91479  15.699  14.094  10.722
49469ION    NA+91480  13.179  16.484   3.442
49470ION    NA+91481  17.009   2.834   0.458
49471ION    NA+91482  19.659  20.334   9.322
49472ION    NA+91483  23.349   0.964  12.192
49473ION    NA+91484   8.909  14.864  11.062
49474ION    NA+91485  18.529  10.664   2.652
49475ION    NA+91486  25.409   7.074   8.992
49476ION    NA+91487   8.539   1.704  11.022
49477ION    NA+91488  17.089  23.641   7.332
49478ION    NA+91489   4.119  18.034  11.622
49479ION    NA+91490  13.349  10.354  10.402
49480ION    NA+91491  23.369  21.541  15.842
49481ION    NA+91492  19.969  17.834   2.028
49482ION    NA+91493  13.419  12.094  10.402
49483ION    NA+91494   4.649  24.741   3.512
49484ION    NA+91495   1.839  13.294  11.682
49485ION    NA+91496   8.749  23.891   4.402
49486ION    NA+91497   6.169   7.224   9.482
49487ION    NA+91498  23.829   4.204   7.012
49488ION    NA+91499  10.839   8.364   8.122
49489ION    NA+91500  13.239  15.264   5.122
49490ION    NA+91501   4.329  17.044   2.632
49491ION    NA+91502  20.449   8.284  15.342
49492ION    NA+91503  17.949   8.884  14.792
49493ION    NA+91504  23.179   9.524   3.202
49494ION    NA+91505  19.259   1.704   8.442
49495ION    NA+91506   3.869   9.894  11.902
49496ION    NA+91507  21.259  15.564   2.488
49497ION    NA+91508   2.559   0.684   1.168
49498ION    NA+91509  15.079  12.244   9.012
49499ION    NA+91510  25.139  12.334  10.892
49500ION    NA+91511   6.979   9.084   0.428
49501ION    NA+91512  24.259   1.274   7.582
49502ION    NA+91513  14.729   7.214   8.612
49503ION    NA+91514  17.709   0.474   1.578
49504ION    NA+91515   7.619  20.854   0.818
49505ION    NA+91516  23.749  13.014  11.792
49506ION    NA+91517  12.439   0.194  11.102
49507ION    NA+91518  10.739  17.364   4.732
49508ION    NA+91519  11.299  23.081   0.078
49509ION    NA+91520  19.569  12.014  10.012
49510ION    NA+91521   9.609  16.414  15.222
49511ION    NA+91522  22.599  17.914   2.932
49512ION    NA+91523  12.369  11.024   4.242
49513ION    NA+91524  19.079  22.501  15.472
49514ION    NA+91525  12.419  24.771   2.278
49515ION    NA+91526  18.139   4.234   0.428
49516ION    NA+91527  11.869  17.024   3.342
49517ION    NA+91528   5.009  18.454   4.452
49518ION    NA+91529  20.289  15.474   7.992
49519ION    NA+91530   7.479  13.484   0.968
49520ION    NA+91531  18.659  22.681   7.162
49521ION    NA+91532   1.419  24.501  12.002
49522ION    NA+91533  12.489   8.504  15.252
49523ION    NA+91534  12.209  23.611   4.352
49524ION    NA+91535   1.099  22.591   9.002
49525ION    NA+91536  23.499   8.494   3.232
49526ION    NA+91537  13.039   4.884  11.052
49527ION    NA+91538   7.549   5.834   7.532
49528ION    NA+91539  16.509  13.854   8.162
49529ION    NA+91540  10.399   2.224  14.682
49530ION    NA+91541   0.559  11.774   7.552
49531ION    NA+91542  13.529   1.744   1.978
49532ION    NA+91543  23.969   6.784  11.842
49533ION    NA+91544  19.589  14.704   2.408
49534ION    NA+91545   6.349   0.574   8.632
49535ION    NA+91546   6.349  14.024  10.842
49536ION    NA+91547   6.259   6.144   1.958
49537ION    NA+91548  14.999   5.234   2.188
49538ION    NA+91549   3.199  18.104  11.752
49539ION    NA+91550  15.439  19.064  15.032
49540ION    NA+91551   0.719   3.094   0.548
49541ION    NA+91552  13.629  19.914   1.648
49542W        W91553  19.959  12.794  10.592
49543W        W91554  19.189   5.044   0.268
49544W        W91555  15.909   2.724   3.112
49545W        W91556  23.319   8.234   1.348
49546W        W91557   7.269  11.464   2.328
49547W        W91558   6.429   7.754   2.612
49548W        W91559  24.369   7.964   9.982
49549W        W91560   0.219   4.124   6.782
49550W        W91561  12.399  10.204   4.022
49551W        W91562   4.019   7.274   0.918
49552W        W91563  20.309  25.331   8.912
49553W        W91564  23.179  21.861   1.338
49554W        W91565  10.209  22.541  10.782
49555W        W91566   4.479  15.124   7.922
49556W        W91567  16.439   0.994  11.692
49557W        W91568  11.209  20.984   1.388
49558W        W91569  25.309  10.534  11.942
49559W        W91570  19.559   4.324  10.302
49560W        W91571   4.399  16.814   1.318
49561W        W91572  11.729   2.794   4.412
49562W        W91573  16.859   1.444  15.842
49563W        W91574  10.369  22.821   3.572
49564W        W91575  22.839  12.784  11.452
49565W        W91576  16.609  13.584  14.852
49566W        W91577  25.529   1.274   1.838
49567W        W91578  14.299  16.564   3.952
49568W        W91579  16.619  11.814   2.208
49569W        W91580  10.129  23.201   8.632
49570W        W91581   4.059   3.014  12.132
49571W        W91582   1.109   7.424   8.072
49572W        W91583   4.629   3.834   3.812
49573W        W91584   2.579  24.611   2.882
49574W        W91585  25.109  24.031  11.582
49575W        W91586  10.419  15.154  11.412
49576W        W91587  12.389   2.514   1.538
49577W        W91588   4.009   0.644  11.332
49578W        W91589  12.359   6.244   9.532
49579W        W91590   0.459  16.934  10.512
49580W        W91591  18.529  23.831  12.582
49581W        W91592  23.499   5.694   8.362
49582W        W91593   5.169  22.401   9.172
49583W        W91594  14.359  19.064   2.752
49584W        W91595  22.899  19.484   8.022
49585W        W91596  24.519  13.104   8.402
49586W        W91597  14.809   9.184  10.322
49587W        W91598   8.909  19.964   9.362
49588W        W91599  19.639   7.884   1.088
49589W        W91600  19.319  24.181   2.168
49590W        W91601  14.309  25.381   1.698
49591W        W91602   5.489  12.444   7.592
49592ION    CL-91603  12.489   4.954   1.268
49593ION    CL-91604   0.679  22.501   9.262
49594ION    CL-91605  13.979  17.284  10.332
49595ION    CL-91606   7.889  21.164   1.578
49596ION    CL-91607  14.759  25.471   8.442
49597ION    CL-91608  17.699  15.394   8.452
49598ION    CL-91609  11.319   3.874  10.102
49599ION    CL-91610  17.049   3.504  15.182
49600ION    CL-91611   1.429   2.714  11.272
49601ION    CL-91612   2.259  16.914  11.092
49602ION    CL-91613  12.459  15.814   2.468
49603ION    CL-91614  13.069  13.504  15.472
49604ION    CL-91615  19.149   0.894  10.892
49605ION    CL-91616   4.419   1.944   1.008
49606ION    CL-91617   0.069   5.914   7.712
49607ION    CL-91618   1.049  15.584   3.012
49608ION    CL-91619  21.769   8.604   2.982
49609ION    CL-91620  15.009  14.394   9.652
49610ION    CL-91621   7.659  15.414   9.132
49611ION    CL-91622   9.959  24.271   0.128
49612ION    CL-91623  18.759   8.194  10.862
49613ION    CL-91624  17.539  10.744  15.272
49614ION    CL-91625  21.099   2.934  11.252
49615ION    CL-91626   3.269  19.244   9.152
49616ION    CL-91627   3.279  21.881   7.632
49617ION    CL-91628   0.549  18.564  11.542
49618ION    CL-91629  24.429   4.804  10.442
49619ION    CL-91630  16.539  11.374  15.582
49620ION    CL-91631   9.509  13.994  10.262
49621ION    CL-91632  15.519  18.814   0.138
49622ION    CL-91633  12.869  21.471   1.298
49623ION    CL-91634   4.259   4.564   8.282
49624ION    CL-91635  16.469   0.184  11.132
49625ION    CL-91636  13.929   3.744   1.388
49626ION    CL-91637  17.449   1.574  10.842
49627ION    CL-91638  15.799  14.574  15.502
49628ION    CL-91639  20.309  12.964   1.098
49629ION    CL-91640  18.329  19.984  10.512
49630ION    CL-91641  19.599  18.414  10.532
49631ION    CL-91642   4.979   8.274   2.248
49632ION    CL-91643  17.649  22.551   0.348
49633ION    CL-91644  20.579   2.884  10.702
49634ION    CL-91645  17.219  13.854   2.368
49635ION    CL-91646   1.819  24.441   1.088
49636ION    CL-91647  10.379  21.401   0.318
49637ION    CL-91648  12.659  10.704   3.992
49638ION    CL-91649  12.309  23.271   4.022
49639ION    CL-91650   7.829  19.064   9.362
49640ION    CL-91651   7.699   3.004  10.782
49641ION    CL-91652  19.629  18.484   0.968
49642ION    CL-91653   2.599  23.521   9.582
49643ION    CL-91654  11.909  21.801   3.272
49644ION    CL-91655  11.559  13.924   2.418
49645ION    CL-91656   6.639  19.494  11.162
49646ION    CL-91657  11.599  10.984   0.518
49647ION    CL-91658  20.039   8.304   8.202
49648ION    CL-91659  11.589  13.824   3.802
49649ION    CL-91660  23.649  19.534  11.652
49650ION    CL-91661  21.049   4.014   9.182
49651ION    CL-91662  16.189  24.591   8.942
49652ION    CL-91663   8.979   6.984   3.172
49653ION    CL-91664  23.609  15.844   8.002
49654ION    CL-91665  10.589  22.091   1.528
49655ION    CL-91666  23.669   8.574   9.972
49656ION    CL-91667   5.089  24.471   3.432
49657ION    CL-91668   0.239  16.794   8.052
49658ION    CL-91669   7.049  15.054  15.782
49659ION    CL-91670  25.569  22.351   7.582
49660ION    CL-91671  22.599  15.694   2.982
49661ION    CL-91672  15.879   1.584  10.742
49662ION    CL-91673   4.219  13.154   8.212
49663ION    CL-91674   0.159   2.094   0.508
49664ION    CL-91675  25.469   7.894   2.912
49665ION    CL-91676   6.569   9.004  10.762
49666ION    CL-91677  19.019  14.814   2.552
49667ION    CL-91678  15.239   4.734   9.422
49668ION    CL-91679  20.219  15.514   0.198
49669ION    CL-91680  13.239  15.314   9.742
49670ION    CL-91681   3.639  20.954  10.822
49671ION    CL-91682  20.779   2.764   8.512
49672ION    CL-91683  21.939  20.964   7.912
49673ION    CL-91684   5.079  13.414   2.792
49674ION    CL-91685  15.949  15.924  15.452
49675ION    CL-91686  21.989  16.754   8.662
49676ION    CL-91687   0.439  23.551   2.902
49677ION    CL-91688  25.559  24.141  10.872
49678ION    CL-91689   0.909  22.161   8.872
49679ION    CL-91690   8.889  24.331   0.378
49680ION    CL-91691   8.249   7.004   9.112
49681ION    CL-91692  22.909  10.604   2.942
49682ION    CL-91693   3.779  25.071   9.312
49683ION    CL-91694  14.639   4.764   9.902
49684ION    CL-91695   5.129  13.084  10.082
49685ION    CL-91696   7.269  19.674   0.648
49686ION    CL-91697  13.599  20.114   9.682
49687ION    CL-91698   9.839  21.701  10.702
49688ION    CL-91699  11.379  17.794   0.968
49689ION    CL-91700  22.529  17.034   2.478
49690ION    CL-91701  22.269   5.794   0.488
49691ION    CL-91702   8.909   8.754   3.292
49692ION    CL-91703  22.639  14.324  11.402
49693ION    CL-91704  11.679   3.514  15.562
49694ION    CL-91705  16.989  12.934   8.522
49695ION    CL-91706  14.159  19.994   1.738
49696ION    CL-91707  15.729   8.924   9.722
49697ION    CL-91708  25.379  12.214  10.462
49698ION    CL-91709  23.379   3.034   0.788
49699ION    CL-91710  20.029  14.844   2.712
49700ION    CL-91711   5.019  18.714   0.208
49701ION    CL-91712  25.419  19.174   8.912
49702ION    CL-91713  15.749  25.341   3.612
49703ION    CL-91714  17.519  25.261   2.682
49704ION    CL-91715  23.149   5.204  11.272
49705ION    CL-91716  16.169  10.834  14.972
49706ION    CL-91717  14.229  25.141   0.918
49707ION    CL-91718  21.009  14.084   9.882
49708ION    CL-91719  14.669  12.954   1.868
49709ION    CL-91720  15.839  22.941   8.392
49710ION    CL-91721  16.069  16.804   9.362
49711ION    CL-91722   2.569   1.174   1.148
49712ION    CL-91723   4.439  10.034   8.002
49713ION    CL-91724  11.819   0.674   9.132
49714ION    CL-91725   5.549   8.124   1.448
49715ION    CL-91726  17.269   4.424  15.562
49716ION    CL-91727  22.419  17.344  11.732
49717ION    CL-91728   3.099  22.671  10.922
49718ION    CL-91729  23.209   3.214   0.198
49719ION    CL-91730   7.799   8.974   0.818
49720ION    CL-91731   8.239  13.514   3.442
49721ION    CL-91732   5.569   0.364   8.852
49722ION    CL-91733  25.059  24.721   8.782
49723ION    CL-91734   0.809  11.364   3.742
49724ION    CL-91735  18.179  16.334   3.652
49725ION    CL-91736  16.919  20.214   8.072
49726ION    CL-91737  20.319  19.984   2.862
49727ION    CL-91738  22.809   4.184   8.142
49728ION    CL-91739   2.919  15.834   8.382
49729ION    CL-91740  14.859   7.064   4.202
49730ION    CL-91741   6.579  21.421  11.432
49731ION    CL-91742  14.339   8.264   4.052
49732ION    CL-91743  11.799  23.211   0.008
49733ION    CL-91744  20.999  21.014   9.612
49734ION    CL-91745   2.789  11.264   8.312
49735ION    CL-91746   4.469   0.874  10.072
49736ION    CL-91747  12.379   6.084   3.102
49737ION    CL-91748  17.409   3.064   0.058
49738ION    CL-91749  12.979  18.204   3.542
49739ION    CL-91750   7.539  12.104   8.552
49740ION    CL-91751   7.769  20.424   3.152
49741ION    CL-91752   6.339   1.054   8.442
49742ION    CL-91753  17.529  16.504   0.668
49743ION    CL-91754   8.459  10.904  15.682
49744ION    CL-91755  21.849  16.244  11.332
49745ION    CL-91756  16.059   9.174  15.022
49746ION    CL-91757  21.119  18.994   8.812
49747ION    CL-91758  16.879  20.404   9.312
49748ION    CL-91759   7.059  20.994  10.672
49749ION    CL-91760  10.969  17.814  10.462
49750ION    CL-91761   5.609   2.904  15.632
49751ION    CL-91762  14.029  21.521   8.242
49752ION    CL-91763  25.279  14.104  10.712
49753ION    CL-91764   9.789   9.154  14.692
49754ION    CL-91765   2.989   4.624  15.692
49755ION    CL-91766  11.539   5.304   0.858
49756ION    CL-91767  15.509   0.944   0.588
49757ION    CL-91768   3.709  18.164  11.392
49758ION    CL-91769  22.729  14.014   2.642
49759ION    CL-91770   5.969  23.361   2.358
49760ION    CL-91771  19.299  24.811   1.968
49761ION    CL-91772   9.619   3.134   3.912
49762ION    CL-91773  15.889  12.624   1.308
49763ION    CL-91774   4.559  18.024   2.762
49764ION    CL-91775   2.669   7.454   8.642
49765ION    CL-91776   8.379  18.044   8.552
49766ION    CL-91777  11.189  14.064  10.092
49767ION    CL-91778   7.809  16.424   1.598
49768ION    CL-91779   1.099   4.074   9.122
49769ION    CL-91780  23.089  25.411   2.792
49770ION    CL-91781  17.059  12.774  10.502
49771ION    CL-91782   7.079  20.784   9.212
49772ION    CL-91783   6.509   8.514   2.892
49773ION    CL-91784   2.359  25.541   2.438
49774ION    CL-91785   7.889   7.254   1.618
49775ION    CL-91786  23.429   1.224   8.082
49776ION    CL-91787   9.429   6.374  15.072
49777ION    CL-91788   5.819   8.274   9.502
49778ION    CL-91789   6.149  17.294  11.272
49779ION    CL-91790  16.189  11.144   2.018
49780ION    CL-91791  19.449   2.024  10.992
49781ION    CL-91792  17.089  14.104   8.832
49782ION    CL-91793  21.989  23.981   1.898
49783ION    CL-91794   6.639   5.594   2.028
49784ION    CL-91795  23.759  17.104   3.042
49785ION    CL-91796  13.649  15.234   4.912
49786ION    CL-91797   3.589  23.231  11.042
49787ION    CL-91798   0.041  15.264   9.362
49788ION    CL-91799   6.479  13.274   1.828
49789ION    CL-91800   9.639  25.331  10.092
49790ION    CL-91801  14.699  20.974   8.462
49791ION    CL-91802  16.519  12.854  15.532
49792ION    CL-91803  16.729   1.904   0.098
49793ION    CL-91804  13.139  18.474   9.172
49794ION    CL-91805   9.139  10.784   9.102
49795ION    CL-91806  11.369   7.424   8.912
49796ION    CL-91807   1.259  13.884   1.138
49797ION    CL-91808   1.849  24.291   8.272
49798ION    CL-91809  22.869  21.471   2.922
49799ION    CL-91810   5.319   4.474   7.642
49800ION    CL-91811  13.789  17.834   1.388
49801ION    CL-91812   2.059  18.434   2.458
49802ION    CL-91813  21.769   1.204   2.108
49803ION    CL-91814  19.939   8.494   1.028
49804ION    CL-91815   2.989  12.324   9.562
49805ION    CL-91816  18.779   1.004   9.282
49806ION    CL-91817   5.489   2.134   0.318
49807ION    CL-91818  17.729  17.524   8.292
49808ION    CL-91819  21.469  22.011  11.912
49809ION    CL-91820  20.899   6.994   2.522
49810ION    CL-91821   1.719   3.794   7.432
49811ION    CL-91822  12.999  18.024  14.962
49812ION    CL-91823   4.809  10.124   9.442
49813ION    CL-91824   9.479  16.684  15.642
49814ION    CL-91825   5.029  18.364   3.582
49815ION    CL-91826  18.729  11.844   9.352
49816ION    CL-91827   4.769  17.304   0.758
49817ION    CL-91828   8.519   6.664   0.628
49818ION    CL-91829  19.659   0.164  11.482
49819ION    CL-91830   9.139  15.094   0.568
49820ION    CL-91831   7.089  22.251  15.572
49821ION    CL-91832  14.329  23.211  15.832
49822ION    CL-91833  17.169   9.524   3.792
49823ION    CL-91834  16.499   5.594   1.618
49824ION    CL-91835   2.759   3.714   2.178
49825ION    CL-91836  10.439   4.284   9.892
49826ION    CL-91837  14.379   4.014   0.188
49827ION    CL-91838  13.689  21.004   1.488
49828ION    CL-91839  12.839  19.224   9.652
49829ION    CL-91840  11.089  24.181   1.238
49830ION    CL-91841  25.479   8.204   0.458
49831ION    CL-91842   8.739  14.024   4.222
49832ION    CL-91843   2.859  15.344   2.712
49833ION    CL-91844   5.629  17.844  10.082
49834ION    CL-91845   0.719  14.764   8.442
49835ION    CL-91846   2.459   3.184   0.188
49836ION    CL-91847  21.569  15.434   0.218
49837ION    CL-91848   8.159  12.374   8.682
49838ION    CL-91849  19.539  19.984  10.952
49839ION    CL-91850  15.169   6.384   4.302
49840ION    CL-91851  15.399  24.981   8.492
49841ION    CL-91852  19.989  16.574   7.952
49842ION    CL-91853   1.359   0.974   8.212
49843ION    CL-91854   2.439  13.964   2.882
49844ION    CL-91855  17.259   6.014  10.382
49845ION    CL-91856   2.919  12.344  15.532
49846ION    CL-91857  17.889   1.014   3.792
49847ION    CL-91858   0.289  11.524   2.498
49848ION    CL-91859  19.389   2.494   2.912
49849ION    CL-91860  11.289  12.544   1.138
49850ION    CL-91861  10.919   4.344   3.732
49851ION    CL-91862  19.339  14.354   0.338
49852ION    CL-91863  12.529  11.884   0.228
49853ION    CL-91864   5.679  18.734  10.462
49854ION    CL-91865   7.459  12.454  15.732
49855ION    CL-91866  21.619   6.984   0.598
49856ION    CL-91867  15.529   2.404   0.688
49857ION    CL-91868  15.759   5.734   3.192
49858ION    CL-91869  12.059   4.744   9.072
49859ION    CL-91870   6.549  18.924   3.802
49860ION    CL-91871  13.269  21.891   2.348
49861ION    CL-91872   7.979  21.671   0.768
49862ION    CL-91873  19.899  21.541   1.368
49863ION    CL-91874   9.759  16.744   3.882
49864ION    CL-91875   1.299  12.604  10.922
49865ION    CL-91876   5.459  10.024   8.162
49866ION    CL-91877  19.849  15.224   8.122
49867ION    CL-91878  13.559   1.314   3.652
49868ION    CL-91879   3.109   9.424  15.552
49869ION    CL-91880  12.699  17.284   9.962
49870ION    CL-91881  16.529  15.604  10.372
49871ION    CL-91882   6.029   3.424   8.282
49872ION    CL-91883   9.109  11.784  10.282
49873ION    CL-91884   4.559  19.554   1.398
49874ION    CL-91885  17.879  12.314   8.372
49875ION    CL-91886   9.489  13.594   2.088
49876ION    CL-91887  10.369  22.061   2.398
49877ION    CL-91888  18.119  14.074  10.542
49878ION    CL-91889   9.139  15.764  10.282
49879ION    CL-91890  22.679  16.274  10.782
49880ION    CL-91891   1.919   0.174   8.052
49881ION    CL-91892   8.619   7.674   2.148
49882ION    CL-91893   5.269  22.091  10.622
49883ION    CL-91894  11.599  11.594   5.082
49884ION    CL-91895  18.789   5.394   7.562
49885ION    CL-91896   8.669  18.784   2.018
49886ION    CL-91897   1.539  19.594  10.512
49887ION    CL-91898  17.889   8.394   8.772
49888ION    CL-91899  13.759  15.944   1.008
49889ION    CL-91900  15.199  25.581   8.952
49890ION    CL-91901   5.399  21.044  10.672
49891ION    CL-91902  20.359  13.224  15.762
49892ION    CL-91903  11.049   5.604   2.268
49893ION    CL-91904   3.869  17.244   3.172
49894ION    CL-91905  17.019  22.761  11.252
49895ION    CL-91906   3.009  16.364   2.902
49896ION    CL-91907  21.429   5.924  10.792
49897ION    CL-91908   5.369  15.954   8.512
49898ION    CL-91909  12.519  22.001   0.408
49899ION    CL-91910   3.759  22.711  10.322
49900ION    CL-91911   6.589   2.724   9.672
49901ION    CL-91912  14.469  17.384   3.552
49902ION    CL-91913   2.159  10.674  15.462
49903ION    CL-91914  16.049  23.681   8.572
49904ION    CL-91915   5.619   2.174   8.622
49905ION    CL-91916   4.219  17.104   8.442
49906ION    CL-91917   3.359  20.274   8.262
49907ION    CL-91918   3.579  15.594   0.138
49908ION    CL-91919   9.129   9.584   3.492
49909ION    CL-91920  19.519  20.124  10.292
49910ION    CL-91921  12.359   3.974   0.948
49911ION    CL-91922   8.629   6.294  10.412
49912ION    CL-91923  19.449   2.944   2.612
49913ION    CL-91924   4.739  11.744  15.732
49914ION    CL-91925   8.029  22.601  10.512
49915ION    CL-91926   6.649   5.234   7.982
49916ION    CL-91927  23.779   8.954   9.712
49917ION    CL-91928  13.329  21.771  15.752
49918ION    CL-91929   4.779   1.624   8.722
49919ION    CL-91930  12.869   9.274   8.982
49920ION    CL-91931  23.559   4.184   9.742
49921ION    CL-91932  17.299   6.364   0.288
49922ION    CL-91933   7.629  20.584   0.418
49923ION    CL-91934  11.879  15.214  10.592
49924ION    CL-91935  11.299   4.884  15.672
49925ION    CL-91936  13.629  19.474   1.488
49926ION    CL-91937  24.779   8.314  15.772
49927ION    CL-91938   9.829  11.334   9.882
49928ION    CL-91939  24.399  21.024  11.872
49929ION    CL-91940  23.019   2.954  11.062
49930ION    CL-91941  18.379  23.451   3.582
49931ION    CL-91942  18.879  16.674   0.268
49932ION    CL-91943   1.119  19.954   2.692
49933ION    CL-91944  19.269  12.794   3.432
49934ION    CL-91945  13.279  16.964   3.362
49935ION    CL-91946   2.889  21.204  11.302
49936ION    CL-91947   9.399  16.104   0.818
49937ION    CL-91948   8.639  12.374   0.248
49938ION    CL-91949  11.909   8.654   0.148
49939ION    CL-91950   2.679   0.554   3.022
49940ION    CL-91951  12.719   5.594   1.368
49941ION    CL-91952  22.659   2.674   0.518
49942ION    CL-91953   8.259  22.621   3.432
49943ION    CL-91954   5.899  23.901   1.168
49944ION    CL-91955  19.049  20.994   8.742
49945ION    CL-91956   1.119   9.334   8.922
49946ION    CL-91957  21.389   3.724   2.722
49947ION    CL-91958  17.039  24.671   8.892
49948ION    CL-91959  20.879   9.364   8.432
49949ION    CL-91960   4.899  13.694   8.142
49950ION    CL-91961  12.889   8.684  14.832
49951ION    CL-91962   7.579  17.164   1.058
49952ION    CL-91963   6.709  25.581   0.948
49953ION    CL-91964  17.389  10.464   3.692
49954ION    CL-91965  22.539  20.004  11.052
49955ION    CL-91966  25.009  10.214   8.142
49956ION    CL-91967   2.179  16.944   8.022
49957ION    CL-91968  17.799  19.034   0.578
49958ION    CL-91969   8.539  10.044   3.462
49959ION    CL-91970  22.199   5.344   0.288
49960ION    CL-91971   8.609   1.624  10.532
49961ION    CL-91972  13.079  22.901   1.098
49962ION    CL-91973   4.409  20.164   8.772
49963ION    CL-91974  19.549  20.484   0.488
49964ION    CL-91975   8.449   6.364   3.152
49965ION    CL-91976  16.459  13.414   3.222
49966ION    CL-91977  17.049  10.704   1.698
49967ION    CL-91978  10.309   6.154  15.632
49968ION    CL-91979  20.499  23.451  10.692
49969ION    CL-91980   6.329  16.814   2.048
49970ION    CL-91981  12.739  24.341   2.238
49971ION    CL-91982   1.749  21.761  11.132
49972ION    CL-91983  19.199  21.611   2.652
49973ION    CL-91984   0.739  11.034   7.982
49974ION    CL-91985  24.439   4.244   1.878
49975ION    CL-91986   8.729   5.254   3.092
49976ION    CL-91987   7.369  18.234   8.702
49977ION    CL-91988   6.209  16.654   0.288
49978ION    CL-91989   9.599  18.724  10.092
49979ION    CL-91990  23.319  14.964   3.572
49980ION    CL-91991  14.829  23.461   0.338
49981ION    CL-91992   0.399  25.291   0.068
49982ION    CL-91993  15.949  22.031   3.422
49983ION    CL-91994  16.219  20.404   8.612
49984ION    CL-91995  10.979   4.664   2.048
49985ION    CL-91996   3.309   6.454   0.038
49986ION    CL-91997  15.019  10.714   1.558
49987ION    CL-91998   6.999  23.711  10.892
49988ION    CL-91999   9.409  23.141   3.982
49989ION    CL-92000   0.299  18.084   2.188
49990ION    CL-92001  18.549  10.744   3.222
49991ION    CL-92002   0.399  23.031  10.252
49992ION    CL-92003  18.219  20.364  11.492
49993ION    CL-92004  21.149  22.641  10.292
49994ION    CL-92005   6.259   7.344   1.198
49995ION    CL-92006  12.429  15.034   3.642
49996ION    CL-92007  19.699  13.124   2.592
49997ION    CL-92008  13.329   2.654   9.102
49998ION    CL-92009  17.119   1.404   2.802
49999ION    CL-92010  16.369   5.944  15.662
50000ION    CL-92011   0.549   8.674  15.872
50001ION    CL-92012  10.069  21.491   3.652
50002ION    CL-92013  16.709  17.494  11.032
50003ION    CL-92014   5.659   3.154   3.082
50004ION    CL-92015   5.699   6.344   3.562
50005ION    CL-92016   8.269  20.134   3.702
50006ION    CL-92017  18.629   6.524   8.642
50007ION    CL-92018   4.359  23.541   3.082
50008ION    CL-92019   5.389  17.694  10.672
50009ION    CL-92020  19.969  22.531   8.542
50010ION    CL-92021  15.939  15.274   3.282
50011ION    CL-92022  11.269   7.924  15.562
50012ION    CL-92023  18.259  25.011  11.592
50013ION    CL-92024   4.879   5.124   1.748
50014ION    CL-92025   4.199   5.964   7.462
50015ION    CL-92026   2.809   9.864   8.292
50016ION    CL-92027  23.309  12.164   7.952
50017ION    CL-92028  23.019  12.754   2.892
50018ION    CL-92029   5.389  12.764   3.382
50019ION    CL-92030  11.389  23.181  15.472
50020ION    CL-92031  23.829  22.141  11.792
50021ION    CL-92032  12.549   8.544   3.602
50022ION    CL-92033  23.149  11.434   9.502
50023ION    CL-92034   1.959   7.934   1.268
50024ION    CL-92035  19.239   6.004  10.682
50025ION    CL-92036   3.299  17.974   0.518
50026ION    CL-92037   5.309  12.234   0.428
50027ION    CL-92038   4.969   9.314   0.908
50028ION    CL-92039  12.929   1.114   2.138
50029ION    CL-92040  22.209   0.894  11.592
50030ION    CL-92041  19.289  17.064  11.362
50031ION    CL-92042  24.859  18.214   9.472
50032ION    CL-92043   2.889   9.224   0.608
50033ION    CL-92044  22.879  25.031   1.858
50034ION    CL-92045   6.589   6.844   2.408
50035ION    CL-92046  18.779  24.411   7.982
50036ION    CL-92047   3.689  23.191   3.662
50037ION    CL-92048   5.499  18.424   9.612
50038ION    CL-92049  19.109  14.294   3.512
50039ION    CL-92050   5.419   5.604   2.218
50040ION    CL-92051  12.979  15.004   0.678
50041ION    CL-92052  10.749   7.554   3.562
50042ION    NA+92053   9.969   3.574   3.852
50043ION    NA+92054   3.639  19.064   9.582
50044ION    NA+92055   9.469  13.264   1.678
50045ION    NA+92056  19.679  20.484  10.972
50046ION    NA+92057   9.529  14.594   8.912
50047ION    NA+92058  10.269  21.204  11.352
50048ION    NA+92059  14.319  11.264   9.842
50049ION    NA+92060  14.759  25.401   9.002
50050ION    NA+92061  23.509  18.764  12.502
50051ION    NA+92062  17.899   8.194   8.322
50052ION    NA+92063  10.749  21.911   2.058
50053ION    NA+92064   9.079   3.174   8.322
50054ION    NA+92065   2.619   6.404  15.742
50055ION    NA+92066  16.779   4.964   7.772
50056ION    NA+92067   1.249   5.244  15.022
50057ION    NA+92068  11.239   8.864   3.972
50058ION    NA+92069  23.339   8.644   9.612
50059ION    NA+92070  13.259  15.164   9.292
50060ION    NA+92071  17.059   3.134  11.202
50061ION    NA+92072  12.899  20.854   8.562
50062ION    NA+92073  14.019   3.424  10.982
50063ION    NA+92074  11.049  12.124   1.228
50064ION    NA+92075  18.439   7.064  10.782
50065ION    NA+92076  11.519  11.644   4.092
50066ION    NA+92077   6.169  13.644   3.582
50067ION    NA+92078  11.199  20.314   8.612
50068ION    NA+92079  11.919   6.324   3.132
50069ION    NA+92080   7.769  22.971  10.802
50070ION    NA+92081  22.709  18.574   3.842
50071ION    NA+92082  11.549   4.114   1.718
50072ION    NA+92083  12.029  12.494   5.042
50073ION    NA+92084  18.399  20.404   1.108
50074ION    NA+92085  19.959   2.094  10.962
50075ION    NA+92086  18.919   4.134   3.942
50076ION    NA+92087   5.009  17.444  11.002
50077ION    NA+92088   7.359  18.564   8.262
50078ION    NA+92089  12.639  13.354   5.542
50079ION    NA+92090   4.709  16.464  15.452
50080ION    NA+92091  17.249  13.864   4.502
50081ION    NA+92092  10.179  24.381   2.672
  25.59731  25.59731  15.87479
